/*--------------------------------*- C++ -*----------------------------------*\
  =========                 |
  \\      /  F ield         | OpenFOAM: The Open Source CFD Toolbox
   \\    /   O peration     | Website:  https://openfoam.org
    \\  /    A nd           | Version:  7
     \\/     M anipulation  |
\*---------------------------------------------------------------------------*/
FoamFile
{
    version     2.0;
    format      ascii;
    class       volScalarField;
    location    "50000";
    object      alphat;
}
// * * * * * * * * * * * * * * * * * * * * * * * * * * * * * * * * * * * * * //

dimensions      [1 -1 -1 0 0 0 0];

internalField   nonuniform List<scalar> 
113400
(
0.00036147973
0.00035627705
0.00034483223
0.0003248429
0.00039396369
0.00038358307
0.000373013
0.00036428699
0.00035595635
0.00034708725
0.00028469111
0.00021744777
0.0001455204
7.7533819e-05
0.00034668113
0.00041130226
0.00046812362
0.00051406382
0.00056205608
0.00060828701
0.00065632806
0.00069920703
0.00075132601
0.00088915536
0.0010459918
0.0013726646
0.0022830979
0.00369405
0.00036497658
0.00037709179
0.00038957462
0.00039130254
0.00039468885
0.00038865823
0.00037372454
0.00034628864
0.00029377275
0.00025728994
0.00022250522
0.00014756393
0.00016735955
0.00028089199
0.00033809929
0.00038532016
0.00043420764
0.00047343051
0.00051401789
0.00055614023
0.0005914266
0.00062649031
0.00065524396
0.0006912673
0.00073266117
0.0007780495
0.00082220574
0.00087039786
0.00033965671
0.00035780498
0.00037866125
0.00039062316
0.00039019157
0.00037965594
0.00033739816
0.00030468548
0.00026702792
0.00022400121
0.0001784313
0.00012884115
0.00025597573
0.00031133013
0.00032827291
0.00037186708
0.0004001985
0.00044702363
0.00048246139
0.00051998402
0.00055170655
0.00058116243
0.0006091723
0.00063456125
0.00065934003
0.00068306053
0.00070217582
0.00071678035
0.00031613669
0.00033527477
0.00035614691
0.00037165862
0.0003698293
0.00035151159
0.00031599376
0.00028310307
0.00024640963
0.00020718842
0.00014576562
0.00023527022
0.00031664223
0.00032614594
0.00033322198
0.00036307065
0.00038979203
0.00042854798
0.00046339774
0.00050022198
0.00053148966
0.00055905871
0.00058550654
0.00060667512
0.00062331682
0.00063611388
0.00064357967
0.00064532767
0.0002942902
0.0003115088
0.00033036697
0.00033669512
0.00033394752
0.00031934742
0.00029116517
0.00026404094
0.00022766347
0.00017652413
0.00018691446
0.00028063336
0.00033277997
0.00032637459
0.00033676731
0.00035284805
0.00038360132
0.00041798391
0.00045007301
0.00048320057
0.00051249378
0.00053539706
0.00055515712
0.00057156674
0.00058328068
0.00059028961
0.00059234184
0.00058940946
0.0002745916
0.00028748162
0.00030329454
0.0002973808
0.00030525346
0.00028512553
0.00027293732
0.00024187242
0.00020416481
0.00015413739
0.00024756616
0.00032313236
0.00034487895
0.00033344455
0.00034409599
0.00035275798
0.00038131844
0.00041160257
0.00044135568
0.0004713449
0.00049730597
0.00051764166
0.00053288522
0.00054390681
0.00055056052
0.00055306839
0.00055125667
0.00054553492
0.0002588035
0.00026501115
0.00027155942
0.00028123464
0.00027337593
0.00027131706
0.00024890038
0.00022120925
0.00018521187
0.00019536335
0.0002722145
0.00035325631
0.00034585546
0.00033894939
0.00034576115
0.00035465466
0.00038235021
0.00040686531
0.00043396634
0.00045989326
0.00048230627
0.00050073829
0.00051263367
0.00052000196
0.00052335688
0.00052282632
0.00051870723
0.00051136757
0.00024586289
0.00025018551
0.00025015723
0.00025680665
0.00025970865
0.00024685786
0.00023071538
0.00020724827
0.00016402868
0.00024773389
0.00030023257
0.00035582371
0.00034969694
0.00034543912
0.00034752115
0.00035876581
0.00038578334
0.00040641428
0.00042888987
0.00045078376
0.00047017962
0.00048452062
0.00049525997
0.00050033028
0.0005012714
0.00049885237
0.00049339066
0.00048521652
0.00023442132
0.00023434911
0.00023899518
0.00024218986
0.00023907282
0.00023213471
0.00021375153
0.00018426516
0.00019374583
0.00027646056
0.00033887044
0.00036374076
0.00035557316
0.00035311134
0.0003545463
0.00036371515
0.00038887637
0.00040697189
0.00042613454
0.00044342491
0.00045884497
0.00047066558
0.00047827537
0.00048250487
0.00048252119
0.00047871281
0.00047228092
0.00046358845
0.0002264344
0.00022531889
0.0002238581
0.00022797089
0.00022648074
0.0002138031
0.00019938567
0.000171027
0.00023192928
0.00028299234
0.00036588348
0.0003712478
0.00036021763
0.00036116615
0.00036076473
0.00036818626
0.0003914849
0.00040716431
0.00042315875
0.0004372337
0.0004489719
0.00045847932
0.00046391295
0.00046608933
0.00046538164
0.00046184264
0.00045475246
0.00044570103
0.00021926188
0.00021730208
0.00021759122
0.00021730951
0.00021081591
0.00020338473
0.00018264293
0.00018288903
0.00025785128
0.00029860891
0.00036475916
0.00037191308
0.00036394793
0.00036528838
0.00036628392
0.00037435305
0.00039374799
0.0004073188
0.00042046123
0.000431812
0.00044073359
0.00044736666
0.00045178685
0.00045234129
0.00045037437
0.00044606813
0.0004396776
0.00043081402
0.00021332408
0.00021166287
0.00020907096
0.00020628267
0.00020289491
0.00018789554
0.00017379116
0.00021499183
0.00027544207
0.00033127117
0.00037131101
0.0003740546
0.00036751937
0.00037144066
0.00037089214
0.0003794578
0.00039594523
0.00040728912
0.00041803654
0.0004270971
0.00043365868
0.00043803122
0.00044071801
0.00044075126
0.0004377646
0.00043273714
0.00042586151
0.00041735699
0.00020794272
0.00020595953
0.00020263654
0.00020006889
0.00019008587
0.00018207766
0.00016575809
0.00023465917
0.00028126334
0.00035332125
0.00038134924
0.0003767426
0.00037094359
0.00037662978
0.00037428319
0.00038321714
0.00039783637
0.00040686011
0.0004156663
0.00042275288
0.00042747999
0.0004301287
0.00043123296
0.00043036398
0.00042710452
0.00042148781
0.00041424721
0.00040556311
0.00020305015
0.00020106941
0.00019762784
0.00019117325
0.00018509246
0.00017457592
0.00019291476
0.00024632413
0.00028977869
0.00036803784
0.00038714463
0.00037878136
0.00037412137
0.00038099792
0.00037729183
0.00038602582
0.00039902105
0.00040639943
0.00041349827
0.00041885554
0.00042218148
0.00042339647
0.00042320322
0.0004214036
0.00041770835
0.00041200776
0.00040446003
0.00039563671
0.00019846221
0.00019645083
0.00019207873
0.00018645447
0.00017949506
0.00016740752
0.00020817102
0.00025823473
0.00030219693
0.00036868161
0.00038571713
0.00037927287
0.0003806761
0.00038450976
0.00038180725
0.00038809346
0.00039976456
0.00040676458
0.00041157511
0.00041552159
0.00041768787
0.00041770404
0.00041644018
0.00041387564
0.00040956619
0.00040371905
0.00039624249
0.00038729667
0.00019418292
0.00019216963
0.00018786795
0.00018218009
0.00017424201
0.00016476115
0.00022145798
0.00026673981
0.00032175217
0.00037264231
0.00038503884
0.00037914208
0.00038590865
0.00038707444
0.0003854625
0.0003894079
0.00040008787
0.00040704555
0.00040988505
0.00041269487
0.00041373176
0.00041292868
0.00041075854
0.00040755316
0.00040273813
0.00039651428
0.00038904245
0.00038029646
0.00019020725
0.00018823819
0.00018406174
0.00017824155
0.00017052782
0.00018019039
0.00023130273
0.00027618241
0.00034065263
0.00037808365
0.00038474962
0.00037884367
0.00039011936
0.00038873398
0.00038832983
0.00039007083
0.00040005081
0.0004072286
0.00040835845
0.00041025719
0.00041034834
0.00040888203
0.00040593855
0.00040219708
0.0003969577
0.00039042653
0.0003827489
0.00037414843
0.00018642486
0.00018450957
0.00018047462
0.00017466718
0.00016773932
0.00018798205
0.00023813544
0.00028525127
0.00035684425
0.00038428326
0.00038458406
0.00038258027
0.00039320489
0.00038980756
0.00039057705
0.00039162247
0.00039967769
0.00040727596
0.00040722629
0.00040812109
0.00040744406
0.00040531227
0.0004018507
0.0003976585
0.00039206364
0.00038527451
0.0003774271
0.0003688761
0.00018279793
0.0001809493
0.00017710853
0.0001716818
0.00016528085
0.00019219784
0.00024108486
0.00028970523
0.00036395042
0.00038916714
0.00038313447
0.00038505557
0.00039531955
0.00039276381
0.000392347
0.00039277774
0.00039913548
0.00040620033
0.00040648743
0.0004063316
0.0004050331
0.0004022995
0.00039848446
0.00039390665
0.00038800879
0.00038099909
0.00037300582
0.00036452046
0.0001793768
0.00017761371
0.00017406259
0.00016908611
0.00016331761
0.00019590822
0.00024478019
0.00029502763
0.00036211884
0.0003865374
0.00038120814
0.00038681889
0.00039649863
0.00039525464
0.00039375255
0.00039364527
0.00039859135
0.00040489215
0.00040601959
0.00040495642
0.00040313155
0.00039988316
0.000395695
0.00039087775
0.00038471363
0.00037751082
0.00036941046
0.00036098014
0.0001762353
0.00017459447
0.00017138061
0.00016690387
0.00016180021
0.00019955737
0.00024854296
0.00030294618
0.00036153126
0.00038297607
0.00038267484
0.00038790109
0.0003969199
0.00039729064
0.00039481357
0.00039428957
0.00039801619
0.0004037284
0.00040576212
0.00040390258
0.00040163289
0.00039794207
0.0003933861
0.00038842427
0.00038202807
0.00037465483
0.00036658145
0.00035810039
0.00017341223
0.00017190673
0.000169047
0.00016507451
0.0001606206
0.00020268685
0.00025087149
0.00030993347
0.00036098865
0.00037920881
0.00038349706
0.00038834478
0.00039671012
0.00039893933
0.0003955688
0.00039511814
0.00039738895
0.00040264198
0.000405617
0.00040306175
0.00040043065
0.00039636651
0.00039150622
0.00038634125
0.00037984021
0.00037231953
0.00036428909
0.00035577102
0.00017092902
0.00016956252
0.0001670573
0.00016358272
0.00015977299
0.00020565965
0.00025285041
0.00031517486
0.00035996996
0.00037712612
0.00038387275
0.00038839969
0.00039737289
0.00040029543
0.00039608959
0.00039604184
0.00039731854
0.0004015786
0.00040466674
0.0004023829
0.00039945338
0.00039508294
0.00038997087
0.00038460179
0.00037806512
0.00037042055
0.0003624467
0.00035390448
0.00016881725
0.00016759131
0.00016543922
0.00016245252
0.00015928272
0.00020866531
0.00025483975
0.00031897408
0.00035808116
0.00037727126
0.00038387576
0.00038801926
0.00039833591
0.00040130319
0.00039725032
0.00039674386
0.00039713011
0.00040053776
0.0004031318
0.00040185252
0.00039866888
0.00039404773
0.00038871777
0.00038318534
0.00037653421
0.00036888907
0.00036098003
0.0003524261
0.00016708637
0.00016599069
0.00016415817
0.00016165033
0.00016187512
0.00021132317
0.00025696111
0.0003216359
0.00035602767
0.00037697865
0.00038339249
0.00038710471
0.00039874605
0.0004019331
0.00039845149
0.00039722681
0.00039684747
0.00039952401
0.00040174959
0.00040144431
0.0003980547
0.00039322559
0.00038770723
0.00038204469
0.00037528646
0.0003676669
0.00035983744
0.0003512836
0.00016566365
0.00016468402
0.00016315892
0.00016108009
0.00016477385
0.00021339535
0.0002592146
0.0003226087
0.00035732577
0.00037628651
0.00038254894
0.0003858073
0.00039877801
0.0004022345
0.00039938523
0.00039750891
0.00039645609
0.00039847697
0.00040040558
0.00040107452
0.00039754147
0.00039256223
0.00038689626
0.00038113965
0.00037430417
0.00036666713
0.00035898535
0.00035044077
0.00016454255
0.00016367044
0.00016242347
0.00016074166
0.00016686862
0.00021486397
0.00026068089
0.00032227973
0.00035766788
0.00037516154
0.00038125126
0.00038590668
0.00039838525
0.00040224529
0.00040008739
0.0003976113
0.00039595669
0.00039736814
0.00039913553
0.00039939973
0.00039714689
0.00039203826
0.00038626016
0.00038044305
0.00037355415
0.00036598054
0.00035835664
0.00034986637
0.00016371421
0.00016293984
0.00016195414
0.0001606487
0.0001686632
0.00021617467
0.00026086795
0.0003239082
0.00035709283
0.00037362042
0.00037944658
0.00038594397
0.00039752118
0.00040200732
0.0004006127
0.00039759564
0.00039565134
0.00039630654
0.00039800619
0.00039797589
0.000396893
0.00039167085
0.00038578965
0.00037992995
0.00037300369
0.00036550226
0.00035789248
0.00034952078
0.00016317668
0.00016249294
0.00016175452
0.00016080269
0.0001702219
0.00021678713
0.00026086581
0.0003229383
0.00035576127
0.00037167506
0.00037725696
0.00038565066
0.00039633581
0.00040206368
0.00040101382
0.00039748988
0.00039587078
0.00039526616
0.00039696721
0.00039667326
0.00039671028
0.00039140833
0.00038545364
0.00037957204
0.00037262946
0.00036521102
0.00035763205
0.00034933101
0.0001629354
0.00016233554
0.00016182999
0.00016120738
0.00017188197
0.00021695183
0.00026223425
0.00032123
0.00035423597
0.00036942982
0.00037595857
0.00038511253
0.00039487216
0.0004027814
0.00040125476
0.00039727656
0.00039601296
0.0003943165
0.00039592643
0.00039546555
0.00039554497
0.0003912365
0.00038521325
0.00037933795
0.0003724028
0.00036507784
0.00035754615
0.00034930196
0.00016298499
0.00016245936
0.0001621653
0.00016183543
0.00017328454
0.00021764933
0.00026299959
0.00031934409
0.00035243654
0.00036681892
0.00037553051
0.00038421946
0.00039309859
0.00040326809
0.00040129427
0.0003977024
0.00039604814
0.00039365403
0.00039489875
0.0003943774
0.00039411462
0.00039116719
0.00038507047
0.00037921671
0.00037230341
0.00036507623
0.00035760309
0.00034942658
0.00016331409
0.00016285105
0.00016274424
0.00016266924
0.00017450586
0.00021841731
0.00026335367
0.00031723979
0.00035030842
0.00036391404
0.0003748034
0.00038300125
0.00039100436
0.00040353645
0.00040112796
0.00039796306
0.00039596377
0.00039294146
0.00039387929
0.00039336016
0.00039279998
0.0003911616
0.00038500451
0.00037919291
0.0003723184
0.00036519585
0.00035779356
0.00034969515
0.00016390851
0.00016349567
0.00016355124
0.00016369509
0.00017582746
0.00021901851
0.00026347786
0.00031501523
0.00034775685
0.00036261072
0.00037381418
0.00038153914
0.00038866173
0.0004034862
0.00040074553
0.00039807185
0.00039577032
0.00039229687
0.00039285319
0.0003923609
0.00039156326
0.00039047863
0.00038500177
0.00037924476
0.00037243215
0.00036542408
0.00035810669
0.00035009723
0.00016474993
0.0001643749
0.00016456791
0.00016490163
0.00017708999
0.0002195353
0.0002633551
0.00031258828
0.00034473515
0.00036165173
0.00037252115
0.00037972553
0.00038746884
0.00040134774
0.00040020487
0.00039805544
0.00039546387
0.00039227682
0.00039178512
0.00039138852
0.00039042691
0.00038929256
0.00038507866
0.00037938436
0.0003726394
0.0003657496
0.0003585281
0.00035061675
0.00016581138
0.00016546236
0.00016577314
0.00016627617
0.00017836234
0.00022000992
0.00026310414
0.00030987047
0.00034246996
0.00036042046
0.00037090804
0.00037763297
0.00038616883
0.00039916128
0.00039954516
0.00039794705
0.00039506093
0.00039218445
0.00039068026
0.00039043838
0.00038935514
0.00038822091
0.00038520783
0.00037958957
0.00037292556
0.0003661575
0.00035904294
0.00035123901
0.00016705176
0.00016674528
0.00016716541
0.00016780932
0.00017965966
0.00022045037
0.00026273447
0.0003068358
0.00034107331
0.00035894976
0.00036896484
0.00037536756
0.00038487603
0.00039689973
0.0003989118
0.00039775735
0.00039457909
0.00039204146
0.00038955696
0.00038948904
0.00038828859
0.0003872053
0.00038486532
0.00037983577
0.00037326493
0.00036662841
0.00035963624
0.00035195177
0.00016849535
0.00016822116
0.00016873103
0.00016948781
0.00018098652
0.0002209424
0.00026195639
0.00030498432
0.00033930625
0.00035731297
0.00036685077
0.0003736747
0.00038349812
0.0003945407
0.00039895064
0.00039746534
0.00039401917
0.00039185369
0.00038842816
0.00038855554
0.00038723642
0.000386276
0.00038389193
0.00038013693
0.00037365585
0.0003671523
0.00036029462
0.00035274007
0.00017012421
0.00016987293
0.00017045396
0.00017129672
0.00018233276
0.00022142706
0.00026076163
0.00030386532
0.00033722114
0.00035550126
0.00036449749
0.0003726144
0.00038193198
0.00039204721
0.00039885945
0.00039707947
0.00039340383
0.00039164022
0.00038774188
0.00038766575
0.00038625627
0.00038544231
0.00038308574
0.00038048364
0.00037409752
0.00036772137
0.00036100606
0.00035358909
0.0001719181
0.00017168034
0.00017231373
0.00017321539
0.00018376307
0.00022160688
0.00026066027
0.00030236692
0.00033492098
0.00035349097
0.00036193805
0.00037137655
0.00038020803
0.00038944662
0.00039867451
0.00039661131
0.00039333259
0.00039138376
0.00038737099
0.0003868007
0.00038532273
0.00038466007
0.00038235068
0.00038057701
0.00037457608
0.00036832096
0.00036176242
0.00035449376
0.00017385381
0.00017362016
0.00017428754
0.00017522121
0.000185068
0.00022192012
0.00026022166
0.00030064081
0.00033248958
0.00035128624
0.00036015404
0.0003700151
0.00037840186
0.00038678375
0.00039839142
0.00039603587
0.00039318053
0.00039104775
0.0003872212
0.00038591025
0.0003845535
0.00038389273
0.00038171021
0.00037990015
0.00037510746
0.0003689545
0.00036256426
0.00035547368
0.00017590746
0.00017566932
0.00017635428
0.0001772968
0.00018630017
0.00022247483
0.00025959144
0.00029876422
0.00032992718
0.000348854
0.00035888478
0.00036848137
0.00037641666
0.00038477332
0.00039763218
0.00039532017
0.00039293111
0.00039062962
0.00038711789
0.00038500789
0.00038386816
0.00038318132
0.00038117216
0.0003793585
0.00037570459
0.00036964452
0.00036342337
0.00035651067
0.00017805668
0.00017780653
0.00017849529
0.00017942992
0.00018758266
0.00022288934
0.00025885217
0.00029675183
0.00032717774
0.00034655913
0.00035742055
0.00036674598
0.0003741843
0.00038281999
0.00039495614
0.00039451762
0.00039261526
0.00039016574
0.00038700266
0.00038413671
0.00038323669
0.000382527
0.00038070241
0.00037888308
0.00037633251
0.00037036802
0.00036432895
0.00035759525
0.00018028391
0.00018001612
0.00018069874
0.00018162073
0.00018884706
0.00022326999
0.00025806949
0.00029467618
0.00032416411
0.0003454987
0.00035578928
0.00036491584
0.0003718904
0.00038092157
0.00039244905
0.00039369545
0.00039229339
0.00038968729
0.00038687347
0.00038393643
0.00038260415
0.0003818962
0.00038025036
0.00037847454
0.0003761551
0.00037112765
0.00036526562
0.00035871448
0.00018256318
0.00018228584
0.00018295939
0.00018386076
0.00019014702
0.00022365025
0.00025727518
0.00029246725
0.0003213431
0.00034428652
0.00035406159
0.00036302243
0.00036995569
0.00037909903
0.00039002643
0.00039325293
0.00039194283
0.00038917078
0.0003867095
0.00038371413
0.00038195442
0.00038126919
0.00037983304
0.00037813165
0.00037596615
0.0003719288
0.00036624261
0.00035986634
0.00018489214
0.00018461668
0.0001852738
0.00018614802
0.0001915323
0.00022408254
0.00025657047
0.00029010139
0.00031967719
0.00034295847
0.00035228923
0.00036103762
0.00036869544
0.00037744401
0.00038759222
0.00039305728
0.00039153496
0.00038860551
0.00038651848
0.00038346709
0.0003813208
0.0003806631
0.00037945677
0.00037783366
0.00037583719
0.00037274767
0.0003672456
0.00036104068
0.00018727532
0.00018699947
0.00018763558
0.00018847557
0.0001929935
0.00022456857
0.0002557178
0.00028844933
0.00031778749
0.00034150318
0.00035040905
0.00035893376
0.00036733353
0.00037571882
0.00038509419
0.00039279811
0.00039107836
0.00038801391
0.00038632013
0.00038321388
0.0003807251
0.00038008888
0.00037911847
0.00037756228
0.00037575145
0.00037337293
0.00036826609
0.00036223883
0.0001897079
0.00018942984
0.00019004097
0.0001908407
0.00019452256
0.0002250751
0.00025478823
0.00028738835
0.00031576944
0.00033995895
0.00034842885
0.00035731089
0.00036592032
0.00037396918
0.00038259925
0.00039249992
0.00039057688
0.00038783004
0.00038610723
0.00038295153
0.00038033923
0.00037954099
0.0003788163
0.00037731113
0.00037573286
0.00037342236
0.00036931652
0.00036347917
0.0001921826
0.0001919003
0.00019248185
0.0001932343
0.00019615226
0.00022546036
0.00025471179
0.00028611842
0.00031371048
0.00033830899
0.00034631793
0.00035621756
0.00036441935
0.00037214958
0.00038046118
0.00039210096
0.00038998678
0.00038767304
0.00038585968
0.00038266095
0.00038040185
0.00037901045
0.00037857142
0.00037712077
0.00037579497
0.00037356296
0.00037040696
0.00036475712
0.0001946876
0.00019439859
0.00019494517
0.00019564207
0.00019774447
0.00022615648
0.00025444419
0.00028472901
0.00031159003
0.00033653934
0.00034421615
0.00035501553
0.0003628058
0.00037016965
0.00037864188
0.00038988959
0.00038934535
0.00038747596
0.00038557906
0.00038260574
0.00038045626
0.0003785065
0.00037837709
0.00037698646
0.00037592388
0.00037376815
0.00037153117
0.00036607298
0.00019721658
0.00019691947
0.00019742527
0.00019806585
0.00019936817
0.00022690404
0.0002541354
0.00028327481
0.00030947089
0.00033462463
0.00034314144
0.00035371061
0.00036115244
0.00036817003
0.00037690633
0.00038768452
0.00038869863
0.00038727967
0.00038528548
0.00038266074
0.00038051
0.00037808654
0.00037822113
0.00037689026
0.00037609454
0.00037402123
0.0003725671
0.00036741385
0.00019976594
0.00019946006
0.00019992303
0.00020051854
0.00020149172
0.00022763948
0.00025385057
0.00028177435
0.00030729799
0.0003327423
0.00034198739
0.00035214389
0.0003594846
0.00036642331
0.00037526026
0.00038560521
0.000388111
0.00038708699
0.00038498453
0.00038271882
0.00038055651
0.00037788036
0.00037807564
0.00037691639
0.0003762766
0.00037443604
0.00037306297
0.00036878772
0.00020232268
0.00020200444
0.00020242757
0.00020297985
0.00020387929
0.00022840179
0.00025363492
0.00028032628
0.00030506464
0.00033196903
0.00034079301
0.00035059624
0.0003577965
0.00036531471
0.00037365307
0.00038358171
0.00038804887
0.00038687765
0.00038467375
0.00038278143
0.00038060137
0.00037774514
0.00037795165
0.00037705125
0.0003764892
0.00037490233
0.00037361915
0.00037019121
0.00020487536
0.00020454505
0.00020493028
0.0002054401
0.00020626724
0.0002291942
0.00025345621
0.00027879933
0.00030326773
0.00033109427
0.00033954524
0.00034902383
0.00035607237
0.00036419124
0.00037204571
0.00038157024
0.00038795438
0.00038664596
0.00038435686
0.00038285249
0.0003806413
0.00037811193
0.00037784081
0.00037722892
0.00037673698
0.00037540971
0.00037421119
0.00037161179
0.00020742523
0.00020708442
0.00020743352
0.00020790463
0.00020866406
0.00023003964
0.00025333021
0.00027719839
0.00030214923
0.00033014953
0.00033827804
0.00034741959
0.00035482042
0.00036306451
0.00037065296
0.00037960015
0.00038785118
0.00038640025
0.00038409918
0.00038292142
0.00038066816
0.0003784705
0.00037772982
0.00037742212
0.0003769981
0.00037593623
0.00037481616
0.00037303537
0.00020997292
0.00020962346
0.00020993822
0.00021037283
0.00021106633
0.00023097122
0.00025310771
0.00027666902
0.00030090521
0.0003291308
0.0003369564
0.00034574485
0.00035396326
0.00036190513
0.00036927821
0.00037795484
0.00038771216
0.00038611518
0.00038421387
0.00038296385
0.00038067367
0.00037882258
0.00037762012
0.00037762235
0.00037725947
0.00037646339
0.00037543583
0.00037413127
0.00021251503
0.00021215786
0.00021243816
0.00021283546
0.00021346097
0.00023185426
0.00025327937
0.00027600683
0.00029961197
0.00032775576
0.0003355488
0.00034420369
0.00035304284
0.00036069348
0.00036782009
0.00037657388
0.00038737464
0.00038575509
0.00038427977
0.00038297345
0.00038065975
0.00037917496
0.00037752728
0.00037784743
0.00037754312
0.00037701812
0.00037609975
0.00037501765
0.00021504643
0.00021468198
0.00021492674
0.00021528534
0.00021584262
0.00023286962
0.0002536503
0.00027523891
0.00029837753
0.00032579217
0.0003340535
0.00034333685
0.00035203239
0.00035942258
0.00036627889
0.00037522672
0.0003856309
0.00038537036
0.00038433042
0.0003829717
0.0003809124
0.00037954027
0.00037747321
0.00037811952
0.00037787101
0.00037762451
0.00037681337
0.00037596055
0.00021756315
0.000217192
0.0002174007
0.00021772082
0.00021823107
0.00023404555
0.00025398872
0.00027447377
0.00029720661
0.00032390683
0.00033275192
0.00034243011
0.00035099924
0.00035814354
0.00036507806
0.00037399738
0.00038408876
0.00038502547
0.00038440782
0.00038298074
0.00038128297
0.000379922
0.00037751908
0.00037843817
0.00037823656
0.00037826977
0.00037755507
0.00037693219
0.00022006372
0.00021968691
0.00021986654
0.00022017066
0.00022062825
0.00023524075
0.00025435046
0.00027376237
0.00029611321
0.00032202637
0.00033219511
0.00034150904
0.00034998516
0.00035686625
0.00036431351
0.00037283944
0.00038262601
0.00038520697
0.00038448809
0.00038299641
0.00038167152
0.00038030151
0.0003781782
0.00037876482
0.00037863251
0.00037894193
0.00037830966
0.00037791453
0.00022256135
0.00022219621
0.0002223553
0.00022261996
0.00022302033
0.00023648329
0.00025473934
0.00027308104
0.00029498585
0.0003206482
0.00033158002
0.00034057813
0.00034896409
0.00035559159
0.00036356901
0.00037170624
0.00038118801
0.00038536812
0.00038455341
0.00038299935
0.00038205976
0.00038066976
0.00037887223
0.00037908378
0.00037914835
0.00037962289
0.00037907063
0.00037892293
0.00022505328
0.00022470093
0.00022483457
0.00022506436
0.0002254132
0.00023778462
0.00025516369
0.00027242258
0.00029391168
0.00031971466
0.00033093389
0.0003396646
0.00034791564
0.00035495121
0.00036283489
0.00037063202
0.00037981348
0.00038552847
0.00038461696
0.00038303283
0.00038245565
0.00038103789
0.00037957385
0.00037940704
0.00037977374
0.00038030478
0.00037997372
0.00037995312
0.00022753775
0.00022720036
0.00022731285
0.00022751156
0.00022781351
0.00023916268
0.00025565002
0.00027172146
0.00029372097
0.0003187577
0.00033027105
0.00033874665
0.00034683942
0.0003544321
0.00036211354
0.00036957454
0.00037888827
0.00038567844
0.00038466692
0.00038347032
0.00038284593
0.00038140303
0.00038027963
0.00037973706
0.00038040763
0.00038098648
0.00038091513
0.00038098357
0.00023002258
0.00022970165
0.00022979579
0.00022996514
0.00023022219
0.00024061378
0.00025609884
0.00027174535
0.00029344851
0.00031785921
0.00032958556
0.00033779554
0.00034622527
0.00035390116
0.000361402
0.00036850837
0.00037811685
0.00038579722
0.00038468812
0.00038389657
0.00038322657
0.00038176213
0.00038099166
0.0003800799
0.00038105742
0.00038167548
0.00038186489
0.00038201369
0.00023251227
0.0002322086
0.00023228564
0.00023242543
0.00023263715
0.00024207883
0.0002568801
0.00027194761
0.00029315678
0.00031700908
0.00032887077
0.00033680595
0.00034590539
0.00035335441
0.00036070164
0.00036746604
0.00037738932
0.00038590363
0.00038469454
0.00038432594
0.00038360441
0.00038234401
0.00038170976
0.00038044275
0.00038172746
0.00038237264
0.0003828211
0.00038303824
0.00023500599
0.00023471978
0.00023477974
0.00023488852
0.00023505433
0.00024369311
0.00025788094
0.0002721128
0.00029287958
0.00031622479
0.00032810298
0.00033635322
0.00034556394
0.0003528276
0.00035998603
0.00036708371
0.00037668226
0.00038598963
0.00038489048
0.00038474951
0.00038397212
0.0003830598
0.00038242146
0.00038095811
0.00038240666
0.0003830723
0.00038377523
0.00038404498
0.0002374989
0.00023723023
0.00023727298
0.00023735084
0.0002374917
0.00024541609
0.00025885985
0.00027226342
0.00029261194
0.00031548173
0.00032728137
0.00033614502
0.00034518512
0.00035227898
0.00035922692
0.00036677619
0.00037595666
0.00038581189
0.00038534311
0.00038514368
0.00038431971
0.00038376986
0.00038311651
0.00038186083
0.00038307821
0.0003837806
0.00038473845
0.00038505263
0.00023998921
0.0002397389
0.00023976766
0.00023983026
0.00023993789
0.00024715812
0.00025984281
0.00027240592
0.00029238544
0.00031467722
0.00032726994
0.00033587996
0.00034476382
0.00035168808
0.00035873845
0.00036643148
0.00037528029
0.00038485305
0.00038578796
0.00038551957
0.00038465157
0.00038447644
0.00038380118
0.00038286176
0.00038374402
0.00038451079
0.00038571646
0.00038607233
0.00024249806
0.00024225142
0.00024226437
0.00024231074
0.00024238927
0.00024892919
0.00026082777
0.0002725293
0.00029209868
0.0003142162
0.00032719168
0.0003355802
0.00034426479
0.00035106623
0.00035859321
0.00036610725
0.00037467588
0.00038418895
0.00038624632
0.00038589801
0.00038521078
0.00038518329
0.00038448394
0.00038386613
0.00038440325
0.00038545144
0.00038669254
0.00038709757
0.00024500616
0.00024476477
0.00024476423
0.00024479755
0.00024485115
0.00025074065
0.00026182638
0.00027263272
0.00029193994
0.0003141193
0.00032707905
0.0003352765
0.00034375594
0.0003506602
0.00035845463
0.00036580922
0.0003740821
0.00038386296
0.00038669068
0.00038626059
0.00038594488
0.00038588019
0.00038515743
0.00038486809
0.00038505742
0.00038638886
0.00038765296
0.00038826898
0.00024752127
0.00024728659
0.00024727479
0.00024729798
0.00024733048
0.00025260385
0.00026284847
0.00027272514
0.00029240342
0.0003139919
0.00032694947
0.00033496654
0.00034321537
0.00035070423
0.00035830225
0.00036552352
0.000373498
0.00038355574
0.00038711425
0.00038660265
0.00038667246
0.00038656891
0.00038586418
0.00038586865
0.00038570918
0.00038732336
0.00038859765
0.00038944765
0.00025005078
0.00024982393
0.0002498023
0.00024981687
0.0002498301
0.00025452014
0.00026384229
0.0002736166
0.00029279431
0.00031390381
0.00032679644
0.00033462224
0.00034296298
0.00035072695
0.00035815521
0.00036522545
0.00037331968
0.00038326868
0.00038752483
0.00038702836
0.00038740093
0.00038724753
0.00038686505
0.00038686078
0.00038636365
0.00038826047
0.00038953524
0.00039062024
0.00025259602
0.00025237727
0.00025234549
0.00025235055
0.00025234335
0.000256461
0.00026534928
0.00027444983
0.00029318287
0.00031384222
0.00032662145
0.00033424047
0.00034309675
0.00035072894
0.00035801148
0.00036491444
0.00037327604
0.00038299574
0.00038790685
0.00038779956
0.00038811371
0.00038791366
0.00038786205
0.0003878457
0.00038714288
0.00038920384
0.0003904751
0.0003917936
0.00025515197
0.00025494106
0.00025489787
0.00025489176
0.0002548741
0.00025858231
0.00026682958
0.00027526047
0.00029357614
0.00031381961
0.00032639348
0.00033440415
0.00034319914
0.00035072801
0.00035785268
0.00036484113
0.00037323234
0.0003827379
0.00038826078
0.00038855658
0.00038881391
0.00038856932
0.00038886157
0.00038881528
0.00038840669
0.00039012935
0.00039141714
0.00039296605
0.00025771438
0.00025751223
0.00025746759
0.00025746264
0.00025743158
0.00026071699
0.00026830858
0.00027605458
0.00029397511
0.00031377968
0.00032634751
0.00033469909
0.00034328387
0.00035072092
0.00035766923
0.00036509203
0.00037318884
0.00038249932
0.00038877531
0.00038930594
0.00038950173
0.00038937998
0.00038984769
0.00038976391
0.00038965065
0.00039102693
0.0003924036
0.00039411724
0.00026031715
0.00026012521
0.0002600698
0.0002600512
0.00026000297
0.00026288184
0.00026979882
0.00027683988
0.00029440157
0.00031369996
0.00032681169
0.00033495882
0.00034336526
0.00035068877
0.00035768607
0.00036532882
0.00037315172
0.000382238
0.00038957786
0.0003900293
0.00039016114
0.0003903842
0.00039081012
0.00039069119
0.00039088051
0.00039189915
0.00039352776
0.00039524263
0.00026293239
0.00026274794
0.00026268444
0.00026265549
0.00026259396
0.00026508531
0.00027130543
0.00027762056
0.00029477652
0.00031429443
0.00032721959