/*--------------------------------*- C++ -*----------------------------------*\
  =========                 |
  \\      /  F ield         | OpenFOAM: The Open Source CFD Toolbox
   \\    /   O peration     | Website:  https://openfoam.org
    \\  /    A nd           | Version:  7
     \\/     M anipulation  |
\*---------------------------------------------------------------------------*/
FoamFile
{
    version     2.0;
    format      ascii;
    class       volScalarField;
    location    "50000";
    object      enthalpy;
}
// * * * * * * * * * * * * * * * * * * * * * * * * * * * * * * * * * * * * * //

dimensions      [0 2 -2 0 0 0 0];

internalField   nonuniform List<scalar> 
113400
(
-732131.18
-732131.14
-732131.04
-732130.83
-732130.4
-732129.58
-732127.81
-732123.87
-732114.87
-732094.07
-732042.36
-731906.18
-731456.94
-729598.87
-725811.5
-721504.66
-715984.3
-709179.7
-700830.61
-690575.29
-677909.59
-662166.46
-642442.52
-618134.7
-588398.94
-552694.26
-514524.52
-476570.63
-732126.24
-732125.41
-732123.45
-732120.02
-732114.48
-732104.61
-732087.08
-732054.57
-731989.23
-731847.17
-731499.84
-730526.16
-728037.96
-724236.5
-720515.62
-714904.68
-707633.52
-698536.59
-687405.34
-673987.99
-657998.71
-639249.05
-617828.06
-594260.78
-569040.38
-543013.26
-517453.66
-493552.35
-732113.98
-732111.81
-732106.67
-732097.65
-732082.76
-732057.82
-732013.72
-731931.3
-731767.43
-731420.62
-730640.9
-728713.2
-725475.07
-721853.18
-717282.03
-710957.56
-702778.8
-692557.74
-680171.41
-665604.6
-648950.57
-630350.56
-610211.05
-589097.28
-567645.77
-546500.23
-526156.86
-506898
-732092.9
-732088.66
-732078.67
-732061.1
-732031.58
-731981.01
-731890.08
-731721.19
-731393.31
-730720.54
-729190.21
-726418.36
-723162.77
-719132.77
-713661.92
-706448.47
-697248.88
-686082.38
-672934.2
-657909.8
-641315.76
-623562.13
-605061.61
-586247.53
-567487.34
-549096.06
-531269.62
-514067.49
-732058.23
-732050.79
-732033.22
-732002.1
-731949.5
-731859.83
-731702.06
-731417.08
-730883.14
-729802.91
-727725.16
-724707.4
-721320.08
-716853.15
-710756.38
-702851.7
-692930.61
-681208.45
-667907.29
-653231.56
-637497.64
-620994.82
-604027.99
-586907.55
-569861.69
-553037.24
-536508.95
-520282.51
-732004.88
-731992.69
-731963.85
-731912.12
-731825.85
-731681.29
-731434.19
-731002.03
-730201.97
-728602.03
-726114.63
-723058.77
-719432.71
-714492.87
-707860.7
-699340.49
-688878.59
-676913.39
-663682.1
-649434.96
-634448.73
-618942.92
-603115.89
-587157.88
-571213.26
-555369.35
-539663.61
-524093.64
-731924.55
-731905.17
-731858.9
-731777.59
-731643.36
-731422.66
-731054.95
-730413.4
-729240.09
-727211.24
-724464.54
-721402.28
-717528.49
-712165.01
-705088.78
-696053.41
-685390.32
-673435.93
-660436.22
-646670.74
-632360.08
-617680.99
-602760.63
-587693.72
-572570.64
-557447.57
-542347.86
-527271.24
-731806.93
-731777.46
-731707.23
-731585.3
-731387.99
-731069.28
-730542.11
-729648.87
-728036.4
-725685.58
-722861.44
-719661.76
-715463.7
-709730.56
-702251.43
-692879.77
-682150
-670326.35
-657612.45
-644281.04
-630533.91
-616496.51
-602260.18
-587885.26
-573404.24
-558851.07
-544246.03
-529593.76
-731640.6
-731597.48
-731495.88
-731322.33
-731043.28
-730598.15
-729876.56
-728654.34
-726674.77
-724125.37
-721227.46
-717809.02
-713266.84
-707180.89
-699380.91
-689833.51
-679106.72
-667470.59
-655081.03
-642165.66
-628892.96
-615377.16
-601678.04
-587840.02
-573886.46
-559820.48
-545647.56
-531376.64
-731412.34
-731351.97
-731210.1
-730968.46
-730586.05
-729982.3
-729015.69
-727416.88
-725176.47
-722563.54
-719609.31
-715996
-711143.16
-704760.2
-696702.18
-687133.16
-676503.75
-665091.64
-653020.95
-640483.34
-627614.6
-614518.21
-601248.85
-587829.06
-574280.35
-560613.04
-546819.16
-532891.6
-731110.14
-731028.26
-730837.2
-730514.91
-730006.08
-729214.73
-727965.71
-726033.61
-723631.61
-720937.4
-717897.13
-714072.49
-708964.21
-702344.49
-694157.66
-684643.88
-674171.33
-662997.1
-651236.37
-639047.1
-626542.13
-613804.9
-600895.63
-587834.91
-574627.85
-561285.61
-547812.38
-534202.64
-730722.98
-730616.23
-730367.71
-729948.22
-729295.23
-728289.83
-726726.98
-724593.41
-722123.44
-719321.41
-716117.25
-712054.94
-706711.24
-699923.28
-691678.98
-682251.64
-671968
-661039.18
-649573.9
-637706.78
-625532.12
-613117.77
-600519.83
-587769.46
-574868.29
-561817.52
-548623.39
-535288.36
-730239.9
-730104.57
-729789.99
-729264.18
-728450.47
-727220.43
-725372.42
-723085.23
-720572.12
-717703.04
-714347.13
-710065.37
-704508.07
-697585.94
-689363.54
-680055.73
-669977.91
-659296.27
-648107.37
-636533.63
-624655.68
-612531.19
-600210.45
-587728.31
-575095.27
-562308.75
-549369.59
-536283.23
-729649.56
-729481.86
-729093.35
-728444
-727447.76
-725965.24
-723917.39
-721587.4
-718980.43
-716072.49
-712605.27
-708135.61
-702387.25
-695384.72
-687225.04
-678052.19
-668179.07
-657737.1
-646806.44
-635500.56
-623891.42
-612030.17
-599961.21
-587720.33
-575324.45
-562776.63
-550074.42
-537220.01
-728948.74
-728746.97
-728280.88
-727509
-726347.63
-724656.53
-722510.5
-720126.82
-717439.13
-714462.93
-710866.49
-706223.07
-700347.06
-693347.79
-685269.94
-676246.02
-666563.16
-656352.28
-645668.92
-634609.09
-623246.96
-611628.31
-599791.87
-587774.34
-575595.37
-563262.77
-550778.99
-538142.79
-728143.55
-727908.51
-727368.29
-726483
-725166.74
-723288.19
-721055.25
-718623.37
-715873.18
-712804.37
-709066.01
-704279.23
-698335.1
-691364.14
-683385.27
-674521.17
-665026.44
-655041.68
-644600.16
-633777.47
-622650.17
-611261.58
-599647.39
-587843.26
-575871.4
-563741.03
-551458.91
-539028.16
-727233.92
-726965.94
-726352.45
-725353.02
-723877.94
-721877.95
-719608.94
-717104.65
-714309.14
-711143.81
-707262.61
-702340.69
-696359.04
-689434.68
-681563.89
-672859.69
-663544.06
-653775.86
-643566.73
-632971.38
-622069.25
-610901.4
-599501.59
-587903.56
-576131.7
-564196.37
-552105.66
-539866.91
-726226.38
-725927.88
-725247.96
-724150.51
-722557.68
-720502.03
-718195.44
-715633.78
-712805.26
-709550.11
-705526.48
-700480.53
-694508.95
-687638.13
-679869.35
-671323.15
-662180.67
-652610.48
-642621.58
-632241.65
-621551.24
-610590.7
-599393.02
-587990.98
-576409.33
-564659.45
-552750.57
-540693.13
-725137.13
-724812.15
-724075.73
-722899.07
-721217.93
-719120.56
-716785.77
-714187.08
-711336.73
-708009.63
-703862.86
-698774.26
-692826.81
-686028.64
-678374.28
-669979.18
-661004.68
-651613.08
-641826.2
-631652.9
-621161.68
-610394.98
-599386.18
-588168.33
-576765.24
-565189.23
-553450.51
-541562.42
-723984.36
-723637.35
-722854.66
-721614.64
-719863.47
-717731.27
-715369.69
-712745.99
-709863.34
-706461.04
-702253.84
-697147.07
-691239.09
-684528.33
-677002.4
-668760.7
-659952.25
-650729.39
-641131.06
-631157.27
-620858.55
-610278.97
-599451.51
-588410.6
-577179.52
-565770.35
-554194.43
-542467.58
-722779.6
-722414.21
-721593.39
-720301.61
-718493.29
-716334.2
-713948.1
-711302.48
-708372.34
-704902.07
-700654.63
-695554.47
-689690.87
-683072.89
-675680.27
-667592.21
-658946.68
-649887.96
-640471.49
-630691.84
-620581.75
-610186.06
-599536.43
-588668.85
-577606.84
-566360.94
-554944.92
-543375.76
-721528.55
-721147.36
-720293.83
-718957.85
-717100.99
-714919.47
-712514.53
-709855.21
-706876.74
-703349.17
-699075.34
-693998.37
-688185.03
-681659.29
-674398.22
-666461.94
-657975.64
-649074.21
-639833.89
-630244.7
-620319.94
-610105.21
-599630.83
-588933.17
-578036.8
-566951.57
-555692.53
-544277.64
-720235.73
-719840.72
-718958.66
-717584.27
-715685.5
-713484.99
-711063.36
-708394.45
-705376.3
-701803.23
-697512.33
-692461.09
-686703.8
-680271.4
-673134.44
-665342.95
-657016.09
-648272.37
-639198.05
-629790.77
-620050.22
-610014.87
-599714.1
-589184.1
-578450.84
-567524.28
-556419.82
-545156.21
-718903.3
-718495.87
-717588.21
-716179.32
-714242.53
-712023.33
-709588.22
-706909.22
-703860.58
-700256.42
-695963
-690938.06
-685241.22
-678904.3
-671890.69
-664243
-656071.23
-647483.4
-638565.38
-629328.21
-619767.99
-609909.04
-599779.46
-589415.06
-578841.93
-568071.11
-557119.1
-546004.24
-717530.55
-717111.42
-716179.46
-714737.03
-712773.77
-710541.47
-708093.26
-705404.05
-702330.73
-698703.95
-694418.28
-689424.4
-683791.1
-677551.5
-670663.46
-663160.97
-655140.65
-646704.29
-637936.45
-628861.45
-619475.14
-609787.85
-599825.72
-589623.7
-579207.56
-568589.25
-557786.87
-546817.8
-716118.19
-715688.55
-714735.16
-713264.79
-711287.06
-709046.32
-706586.79
-703884.01
-700797.45
-697163.34
-692888.45
-687927.45
-682355.76
-676212.41
-669449.04
-662090.22
-654218.09
-645929.24
-637307.51
-628390.45
-619175.49
-609656.63
-599858.67
-589815.82
-579553.62
-569084.18
-558427.6
-547601.07
-714669.78
-714231.44
-713260.94
-711769.99
-709784.48
-707538.59
-705071.13
-702356.73
-699263
-695632.51
-691372.66
-686452.41
-680946.87
-674895.5
-668253.5
-661034.88
-653307.37
-645162.71
-636686.14
-627916.09
-618860.36
-609508.87
-599873.04
-589986.98
-579876.11
-569553.48
-559040.14
-548352.98
-713189.09
-712743.81
-711760
-710253.92
-708263.95
-706015.69
-703539.94
-700822.61
-697733.13
-694111.36
-689872.15
-685000.2
-679566.39
-673605.54
-667081.24
-659998.02
-652411.17
-644405.89
-636068.27
-627437.82
-618531.86
-609340.99
-599862.6
-590129.76
-580167.45
-569989.34
-559616.58
-549065.99
-711679.58
-711229.01
-710235.41
-708719.21
-706728.55
-704479.83
-702000.9
-699283.71
-696203.27
-692597.5
-688384.61
-683563.85
-678202.84
-672332.36
-665922.52
-658967.86
-651518.83
-643650.88
-635446.18
-626950.2
-618188.92
-609155.04
-599830.54
-590247.73
-580431.13
-570394.91
-560160.2
-549743.06
-710143.8
-709689.4
-708689.04
-707166.66
-705178.27
-702928.81
-700452.33
-697738.3
-694666.6
-691079.05
-686897.96
-682131.15
-676840
-671061.18
-664766.42
-657934.72
-650618.09
-642884.96
-634810.48
-626447.5
-617822.23
-608936.25
-599764.73
-590330.32
-580657.66
-570761.42
-560662.67
-550376.47
-708582.75
-708125.69
-707120.98
-705595.63
-703610.96
-701364.53
-698894.74
-696185.44
-693123.58
-689555.16
-685412.39
-680705.31
-675482.36
-669794.23
-663612.47
-656903.49
-649718.16
-642116.34
-634169.71
-625935.44
-617437.96
-608689.83
-599666.58
-590376.97
-580845.43
-571086.74
-561121.79
-550964.69
-706997.81
-706539.21
-705532.46
-704007.3
-702028.3
-699788.57
-697328.18
-694625.15
-691574.71
-688027.01
-683924.45
-679279.92
-674125.31
-668527.22
-662457.48
-655870.45
-648815.68
-641343.01
-633521.6
-625412.25
-617037.92
-608421.99
-599542.84
-590394.29
-581000.66
-571376.64
-561542.82
-551512.39
-705390.43
-704931.33
-703924.68
-702402.52
-700431.89
-698201.25
-695751.41
-693055.74
-690016.04
-686494.2
-682436.67
-677853.15
-672765.74
-667255.22
-661297.82
-654832.04
-647906.04
-640560.59
-632861.59
-624874.24
-616621.39
-608130.73
-599388.64
-590379.59
-581121.82
-571630.26
-561925.3
-552019.36
-703762.07
-703303.44
-702298.9
-700782.5
-698822.43
-696602.4
-694164.09
-691476.89
-688448.33
-684956.28
-680948.58
-676425
-671410.57
-665984.32
-660128.96
-653783.73
-646983.84
-639766.81
-632191.61
-624322.98
-616189.48
-607816.58
-599202.28
-590329.63
-581205.1
-571843.62
-562265.3
-552481.83
-702114.29
-701657.04
-700656.42
-699148.12
-697200.33
-694992.03
-692565.95
-689887.16
-686872.91
-683414.17
-679457.25
-674993.62
-670052.91
-664709.19
-658949.67
-652720.68
-646044.05
-638954.12
-631502.4
-623750.75
-615733.98
-607475.16
-598983.65
-590243.77
-581249.53
-572015.55
-562561.53
-552898.47
-700448.34
-699993.26
-698998.19
-697500.03
-695566.04
-693370.44
-690957.12
-688286.46
-685290.05
-681868.92
-677961.65
-673556.17
-668687.31
-663423.75
-657756.28
-651638.69
-645081.11
-638115.21
-630784.79
-623148.32
-615246.56
-607100.78
-598727.3
-590115.54
-581250.54
-572142.55
-562811.18
-553266.91
-698765.11
-698312.91
-697324.76
-695838.41
-693919.41
-691737.43
-689335.98
-686677.15
-683702.21
-680318.49
-676458.99
-672111.24
-667312.59
-662124.44
-656548.01
-650540.62
-644096.89
-637250.76
-630038.27
-622514.03
-614725.06
-606691.19
-598429.01
-589937.21
-581199.74
-572216.09
-563005.82
-553578.97
-697065.36
-696616.63
-695636.55
-694163.41
-692260.46
-690092.96
-687702.71
-685059.01
-682108.88
-678761.37
-674947.71
-670659.25
-665932.18
-660816.5
-655329.08
-649429.53
-643095.4
-636363.18
-629265.93
-621851.64
-614170.89
-606244.73
-598089.54
-589712.41
-581098.35
-572235.89
-563144.18
-553832.73
-695349.84
-694905.06
-693933.96
-692475.13
-690589.23
-688435.69
-686060.24
-683435.83
-680510.59
-677198.77
-673429.95
-669199.79
-664543.78
-659498.68
-654097.48
-648301.43
-642075.15
-635454.7
-628469.51
-621163.14
-613586.47
-605764.22
-597713.18
-589446.06
-580951.3
-572207.87
-563232.4
-554034.21
-693619.64
-693179.3
-692218.18
-690775.01
-688907.15
-686769.46
-684411.43
-681807.46
-678907.02
-675629.33
-671906.27
-667734.54
-663146.55
-658169.4
-652850.95
-647155.3
-641034.47
-634523.61
-627649.42
-620450
-612975.38
-605255.31
-597306.79
-589141.83
-580757.38
-572130.99
-563269.49
-554182.68
-691875.86
-691440.37
-690490.07
-689063.58
-687214.42
-685094.68
-682755.48
-680171.7
-677295.57
-674050.59
-670374.56
-666262.39
-661739.12
-656830.81
-651594.85
-645997.1
-639980.17
-633576.92
-626812.29
-619718.54
-612343.97
-604723.76
-596874.2
-588806.75
-580526.5
-572012.15
-563260.76
-554282.22
-690119.87
-689689.62
-688750.89
-687342.09
-685512.92
-683412.36
-681092.32
-678528.51
-675675.88
-672463.66
-668834.63
-664781.94
-660323.07
-655486.3
-650327.42
-644819.34
-638906.57
-632609.96
-625953.33
-618963.37
-611686.13
-604163.26
-596409.97
-588437.32
-580258.33
-571853.65
-563209.77
-554337
-688353.03
-687928.37
-687001.92
-685611.74
-683803.43
-681722.43
-679421.51
-676877.1
-674046.07
-670869.23
-667289.87
-663294.2
-658897.44
-654129.45
-649043.35
-643618.58
-637804.87
-631611.1
-625058.74
-618173.48
-610995.11
-603567.16
-595908.69
-588030.73
-579946.76
-571644.71
-563107.81
-554339.67
-686576.11
-686157.29
-685243.6
-683872.57
-682085.56
-680024.26
-677742.3
-675216.52
-672407.14
-669266.21
-665736.23
-661795.27
-657458.74
-652756.55
-647738.49
-642393.8
-636675.61
-630580.22
-624129.09
-617347.3
-610267.73
-602933.59
-595368.42
-587583.21
-579590.47
-571385.9
-562952.81
-554286.94
-684789.13
-684376.27
-683475.51
-682123.67
-680358
-678316.16
-676052.57
-673543.47
-670757.25
-667653.73
-664170.19
-660280.53
-656003.71
-651367.55
-646414.22
-641147.33
-635522.34
-629521.33
-623168.08
-616487.06
-609504.19
-602261.93
-594787.96
-587093.22
-579189.2
-571079.15
-562747.11
-554181.08
-682991.82
-682584.92
-681697.03
-680364.19
-678619.75
-676597.2
-674350.87
-671859.79
-669098.32
-666031.34
-662592.65
-658752.42
-654533.78
-649962.97
-645072.96
-639881.95
-634347.63
-628437.74
-622178.63
-615594.94
-608705.87
-601552.9
-594167.83
-586561.51
-578744.65
-570726.13
-562492.36
-554024.82
-681184.06
-680783.1
-679908.04
-678594.06
-676870.86
-674867.47
-672637.68
-670166.28
-667430.83
-664398.62
-661002.51
-657211.26
-653049.98
-648541.98
-643713.15
-638595.13
-633147.76
-627327.44
-621160.81
-614670.16
-607872.32
-600806.43
-593507.66
-585987.84
-578257.21
-570324.76
-562183.06
-553813.12
-679365.36
-678970.27
-678107.82
-676812.33
-675110.22
-673125.16
-670913.83
-668464.06
-665753.59
-662754.58
-659398.64
-655656.64
-651552.9
-647104.68
-642336.35
-637290.58
-631928.65
-626196.47
-620120.54
-613719.27
-607011.49
-600032.12
-592816.21
-585379.75
-577732.16
-569882.08
-561827.99
-553552.2
-677535.79
-677146.53
-676296.58
-675019.49
-673338.4
-671373.02
-669181.72
-666753.4
-664067.21
-661100.02
-657782.97
-654089.08
-650042.19
-645652.75
-640947.35
-635968.69
-630684.37
-625040.44
-619053.92
-612741.52
-606123.4
-599228.88
-592093.65
-584738.15
-577171.08
-569400.81
-561431.5
-553247.1
-675695.9
-675312.46
-674475.04
-673216.37
-671556.53
-669611.51
-667440.51
-665033
-662370.09
-659432.7
-656155.99
-652511.71
-648519.26
-644186.46
-639541.84
-634626.22
-629413.67
-623854.32
-617954.59
-611729.87
-605200.54
-598389.44
-591333.41
-584057.01
-576568.63
-568876.78
-560990.02
-552895.11
-673845.93
-673468.26
-672643.23
-671402.76
-669765.32
-667841.35
-665690.1
-663302.65
-660662.04
-657753.81
-654517.09
-650921.19
-646980.58
-642702.83
-638116.58
-633260.61
-628116.03
-622636.98
-616820.57
-610680.94
-604238.18
-597509.79
-590532.44
-583334.05
-575923.53
-568310.21
-560502.14
-552491.54
-671986.15
-671614.24
-670801.59
-669579.35
-667965.3
-666062.63
-663930.21
-661561.5
-658940.86
-656062.66
-652866.56
-649315.54
-645423.1
-641199.59
-636670.91
-631870.68
-626792.63
-621392.17
-615654.98
-609597.17
-603238.16
-596590.58
-589690.15
-582568.53
-575234.85
-567698.35
-559966.87
-552037.69
-670117.09
-669750.91
-668950.62
-667746.64
-666156.06
-664274.46
-662160.26
-659808.93
-657208.28
-654360.45
-651203.69
-647695.48
-643848.91
-639677.63
-635204.98
-630458.48
-625445.09
-620120.93
-614459.97
-608480.68
-602201.9
-595634.92
-588811.81
-581764.6
-574505.94
-567044.52
-559387.93
-551538.33
-668239.24
-667878.74
-667090.69
-665904.72
-664337.21
-662476.28
-660379.64
-658044.14
-655463.86
-652646.74
-649526.98
-646058.92
-642257.19
-638136.75
-633718
-629023.55
-624071.98
-618821
-613233.53
-607330.02
-601129
-594641.21
-587894.77
-580920.98
-573736.26
-566348.78
-558766.06
-550994.98
-666352.44
-665997.47
-665221.29
-664052.76
-662507.44
-660666.48
-658585.98
-656267.93
-653709.78
-650921.55
-647836.86
-644406.6
-640649.22
-636579.11
-632211.66
-627568.27
-622676.62
-617495
-611979.64
-606150.92
-600024.71
-593613.84
-586942.42
-580040.76
-572928.87
-565614.5
-558105.36
-550410.24
-664456.47
-664106.82
-663342.08
-662190.36
-660666.49
-658844.86
-656781.4
-654482.24
-651946.12
-649185
-646133.31
-642739.88
-639025.69
-635004.36
-630686.38
-626094.27
-621262.44
-616148.94
-610704.78
-604949.72
-598896.41
-592560.17
-585961.81
-579130.68
-572090.18
-564847.61
-557411.03
-549788.86
-662551.56
-662207.07
-661453.46
-660318.09
-658815.16
-657013.03
-654967.86
-652687.82
-650173.13
-647436.25
-644414.04
-641058.47
-637388.51
-633414.39
-629145.07
-624604.89
-619827.71
-614776.23
-609403.27
-603720.84
-597740.36
-591478.32
-584951.11
-578188.95
-571218.39
-564046.25
-556680.84
-549130.02
-660638.13
-660298.71
-659556.02
-658436.77
-656954.58
-655172.59
-653146.11
-650884.48
-648390.03
-645675.54
-642681.52
-639363.01
-635736.14
-631807.29
-627585.58
-623095.72
-618369.49
-613375.55
-608070.06
-602457.72
-596548.93
-590360.26
-583902.9
-577208.24
-570306.2
-563203.35
-555908.12
-548427.81
-658716.17
-658381.7
-657649.72
-656546.34
-655084.66
-653322.7
-651314.45
-649070.28
-646594.75
-643900.64
-640934.8
-637653.29
-634066.7
-630180.33
-626005.28
-621564.68
-616885.98
-611948.26
-606708.71
-601162.76
-595322.68
-589204.41
-582817.78
-576191.88
-569356.04
-562320.75
-555094.37
-547683.57
-656785.47
-656455.84
-655734.32
-654646.41
-653204.61
-651462.13
-649471.43
-647243.74
-644785.63
-642111.88
-639174.3
-635928.11
-632379.74
-628533.63
-624403.14
-620010.22
-615377.39
-610494.36
-605318.99
-599837.24
-594063.8
-588014.28
-581697.86
-575140.66
-568370.81
-561402.74
-554244.21
-546902.39
-654845.83
-654520.9
-653809.51
-652736.51
-651313.83
-649590.2
-647616.3
-645404
-642962.01
-640308.62
-637398.96
-634185.85
-630673.04
-626866.93
-622780.75
-618433.04
-613844.18
-609013.56
-603899.94
-598480.24
-592771.33
-586788.83
-580541.39
-574052
-567348.11
-560447.14
-553356.39
-546083.57
-652896.45
-652576.01
-651874.28
-650815.5
-649411.01
-647705.37
-645747.29
-643548.67
-641123.48
-638491.42
-635607.8
-632425.81
-628946.57
-625179.19
-621136.25
-616831.45
-612286.07
-607506.86
-602451.57
-597093.09
-591448.28
-585530.46
-579350.27
-572927.5
-566288.84
-559454.44
-552431.16
-545227
-650936.16
-650619.97
-649927.4
-648882.07
-647494.77
-645806.24
-643862.79
-641678.61
-639271.22
-636659.41
-633800.24
-630647.07
-627200.81
-623471.58
-619469.83
-615206.15
-610703.71
-605975.33
-600976.58
-595678.05
-590096.33
-584241.71
-578127.12
-571769.7
-565195.36
-558426.76
-551470.37
-544334.38
-648963.91
-648651.77
-647967.91
-646935.39
-645564.5
-643892.34
-641963.79
-639795.2
-637405.43
-634812.86
-631976.73
-628850.47
-625436.58
-621745.12
-617782.74
-613558.54
-609097.49
-604418.53
-599474.52
-594234.06
-588713.57
-582921.54
-576871.96
-570578.32
-564067.11
-557363.44
-550473.31
-543405.03
-646978.88
-646670.61
-645995.11
-644974.91
-643619.85
-641964.02
-640051.2
-637898.44
-635525.45
-632951.12
-630136.31
-627036.74
-623655.08
-619999.34
-616073.89
-611889.5
-607470.24
-602838.13
-597947.38
-592763.53
-587302.03
-581571.62
-575586.21
-569355.46
-562906.62
-556266.69
-549442.04
-542441.06
-644980.63
-644676.12
-644008.73
-643000.55
-641661.07
-640021.81
-638124.91
-635987.49
-633630.53
-631073.54
-628278.68
-625205.18
-621855.41
-618233.86
-614344.01
-610199.1
-605821.81
-601234.65
-596396.9
-591270.02
-585865.98
-580195.73
-574272.9
-568105.82
-561720.24
-555142.59
-548382.37
-541447.82
-642969.04
-642668.2
-642008.77
-641012.42
-639688.34
-638065.51
-636184.2
-634061.44
-631719.61
-629178.53
-626404.48
-623358.08
-620038.46
-616449.52
-612595.14
-608489.81
-604154.24
-599608.51
-594820.1
-589750.22
-584403.09
-578792.17
-572931.24
-566828.18
-560506.42
-553990.55
-547294.03
-540425.07
-640944.06
-640646.83
-639995.2
-639010.44
-637701.43
-636094.75
-634228.63
-632119.96
-629792.45
-627267.64
-624515.13
-621495.28
-618204.59
-614646.65
-610827.7
-606761.79
-602465.88
-597959.96
-593218.68
-588203.2
-582912.18
-577360.16
-571559.88
-565520.09
-559261.49
-552808.04
-546175.79
-539371.57
-638905.45
-638611.72
-637967.67
-636994.19
-635699.81
-634108.83
-632257.4
-630162
-627848.23
-625340.33
-622609.46
-619614.83
-616351.6
-612823.93
-609039.76
-605011.93
-600754.05
-596287.74
-591593.19
-586629.96
-581394.43
-575901.08
-570160.24
-564182.73
-557986.62
-551595.25
-545026.92
-538287.87
-636852.65
-636562.29
-635925.56
-634962.93
-633682.62
-632106.78
-630269.34
-628186.17
-625886.81
-623396.66
-620686.26
-617715.52
-614478.14
-610980.89
-607231.75
-603240.47
-599019.4
-594591.76
-589943.08
-585030.88
-579849.85
-574414.32
-568732.15
-562816.03
-556681.65
-550351.93
-543847.26
-537173.5
-634784.78
-634497.65
-633867.92
-632915.66
-631648.79
-630087.42
-628263
-626193.19
-623909.55
-621436.29
-618745.33
-615797.08
-612585.27
-609118.31
-605403.04
-601446.76
-597262.58
-592873.73
-588269.14
-583406.55
-578278.55
-572899.08
-567275.71
-561421.33
-555347.52
-549078.66
-542637.11
-536028.29
-632701
-632416.97
-631793.95
-630851.67
-629597.72
-628050.36
-626239.97
-624184.76
-621916.38
-619459.36
-616786.81
-613859.53
-610673.24
-607236.67
-603553.84
-599631.26
-595483.5
-591133.14
-586571.14
-581758.18
-576683.43
-571358.54
-565793.03
-559999.57
-553985.95
-547777.41
-541398.01
-534853.41
-630600.89
-630319.88
-629703.41
-628770.9
-627529.73
-625996.81
-624201.1
-622160.32
-619906.72
-617465.24
-614809.81
-611903.82
-608743.6
-605336.11
-601684.3
-597795.02
-593683.38
-589370.57
-584850.21
-580086
-575063.75
-569792.36
-564283.4
-558549.31
-552597.32
-546450.67
-540132.14
-533650.83
-628484.36
-628206.33
-627596.35
-626673.58
-625445.24
-623926.9
-622145.79
-620119.14
-617879.82
-615453.21
-612814.67
-609930.33
-606795.87
-603416.33
-599794.2
-595938.26
-591862.87
-587586.3
-583106.95
-578390.54
-573419.21
-568200.76
-562747.93
-557072.38
-551181.87
-545097.26
-538839.7
-532421.62
-626351.35
-626076.29
-625472.77
-624559.67
-623343.99
-621840.04
-620073.27
-618060.25
-615834.63
-613421.96
-610800.84
-607938.79
-604828.98
-601476.23
-597883.46
-594060.68
-590020.73
-585779.36
-581341.3
-576672.86
-571751.03
-566585.56
-561189.13
-555571.25
-549741.58
-543718.45
-537522.39
-531168.09
-624201.68
-623929.52
-623332.32
-622428.66
-621225.34
-619735.43
-617982.56
-615982.52
-613769.6
-611371.87
-608769.44
-605928.82
-602842.78
-599515.69
-595952.64
-592163.52
-588158.1
-583951.33
-579553.99
-574933.09
-570060.26
-564947.38
-559607.07
-554046.37
-548276.88
-542314.77
-536179.98
-529889.14
-622034.69
-621765.35
-621174.29
-620279.79
-619088.44
-617612.18
-615872.7
-613884.87
-611685.46
-609303.82
-606719.56
-603899.75
-600836.59
-597535.43
-594002.48
-590246.28
-586274.32
-582102.85
-577746.79
-573172.01
-568347.51
-563286.52
-558000.94
-552497.9
-546789.19
-540887.11
-534812.92
-528584.98
-619849.57
-619582.96
-618997.82
-618112.17
-616932.39
-615469.3
-613742.62
-611767.78
-609583.14
-607217.35
-604650.66
-601850.91
-598809.76
-595534.8
-592032.39
-588308.42
-584369.41
-580233.19
-575918.49
-571389.41
-566614.01
-561605.64
-556374.09
-550928.35
-545280.1
-539437.43
-533423.03
-527257.32
-617645.58
-617381.62
-616802.24
-615925.2
-614756.66
-613306.46
-611593.25
-609632.68
-607462.91
-605112.52
-602562.7
-599781.93
-596763.63
-593515.93
-590043.28
-586350.77
-582445.43
-578345.62
-574070.23
-569584.98
-564858.95
-559903.28
-554725.39
-549336.19
-543747.31
-537965.39
-532012.07
-525907.51
-615422.47
-615161.13
-614587.46
-613718.96
-612561.7
-611124.87
-609425.95
-607480
-605324.99
-602989.69
-600456.19
-597694.64
-594699.93
-591479.38
-588035.92
-584374.18
-580502.5
-576439.16
-572200.84
-567758.18
-563081.54
-558177.38
-553053.22
-547720.75
-542190.53
-536470.01
-530578.64
-524534.85
-613180.36
-612921.64
-612353.72
-611493.88
-610348.13
-608924.95
-607240.52
-605309.15
-603168.66
-600848.04
-598330.37
-595588.66
-592618.01
-589423.68
-586008.31
-582377.55
-578540.14
-574512.52
-570310.02
-565909.47
-561281.91
-556428.29
-551357.95
-546082.49
-540610.44
-534951.01
-529121.24
-523138.88
-610919.45
-610663.38
-610101.26
-609250.15
-608115.9
-606706.37
-605036.34
-603119.32
-600993
-598686.37
-596185.49
-593464.83
-590517.56
-587348.79
-583960.77
-580360.96
-576558.13
-572565.65
-568398.74
-564040.02
-559460.81
-554657.05
-549639.96
-544421.12
-539007.03
-533408.44
-527640.02
-521719.25
-608639.72
-608386.28
-607829.91
-606987.42
-605864.54
-604468.5
-602812.64
-600909.58
-598796.8
-596505.17
-594022.39
-591322.29
-588397.78
-585253.59
-581893.67
-578325.68
-574556.51
-570598.24
-566467.36
-562150.78
-557618.56
-552864.62
-547900.78
-542737.33
-537381.56
-531844.3
-526136.47
-520276.76
-606340.73
-606089.89
-605539.15
-604705.14
-603593.41
-602210.59
-600568.58
-598679
-596580.67
-594305.27
-591840.35
-589160.46
-586258.23
-583138.7
-579807.32
-576271.11
-572535.16
-568610.93
-564516.02
-560241.28
-555755.5
-551051.58
-546141.27
-541032.77
-535735.06
-530258.88
-524611.11
-518811.73
-604021.94
-603773.63
-603228.44
-602402.72
-601301.92
-599932.06
-598303.67
-596428.73
-594346.19
-592086.86
-589639.42
-586979.21
-584098.53
-581004.29
-577702.19
-574197
-570493.45
-566604
-562545.85
-558312.09
-553872.13
-549217.63
-544360.18
-539305.83
-534065.13
-528648.76
-523062.58
-517325.11
-601682.92
-601437.12
-600897.39
-600079.9
-598989.93
-597633.1
-596019.23
-594160.03
-592093.32
-589849.83
-587419.41
-584778.09
-581919.74
-578851.82
-575578.41
-572103.63
-568432.3
-564577.56
-560555.77
-556362.12
-551968.46
-547363.81
-542557.85
-537557.99
-532374.86
-527017.48
-521493.15
-515818.05
-599323.69
-599080.39
-598546.16
-597736.96
-596658.03
-595314.68
-593715.89
-591872.63
-589821.72
-587593.83
-585179.93
-582557.88
-579722.74
-576681
-573435.7
-569990.54
-566352.07
-562532.73
-558546.68
-554392.66
-550044.9
-545489.93
-540735.19
-535789.8
-530664.25
-525365.61
-519902.8
-514289.7
-596944.54
-596703.79
-596175.15
-595374.4
-594306.68
-592976.99
-591393.39
-589566.08
-587530.84
-585318.22
-582920.97
-580319.2
-577507.73
-574491.67
-571273.91
-567858.74
-564253.6
-560469.31
-556518.38
-552404.72
-548103.48
-543597.3
-538893.3
-534001.9
-528933.23
-523693.28
-518291.91
-512740.26
-594545.79
-594307.61
-593784.59
-592992.31
-591935.8
-590619.77
-589051.33
-587239.83
-585220.02
-583022.72
-580643.3
-578062.69
-575274.54
-572283.79
-569093.04
-565708.3
-562137.05
-558387.4
-554471.28
-550397.97
-546143.21
-541685.14
-537032.49
-532195.64
-527182.95
-522001.8
-516662.02
-511171.09
-592127.29
-591891.66
-591374.22
-590590.33
-589544.94
-588242.45
-586689
-584893.08
-582888.78
-580707.96
-578347.23
-575787.49
-573022.25
-570056.13
-566893.32
-563540.08
-560002.2
-556286.66
-552406.22
-548374.21
-544165.79
-539755.66
-535154.19
-530371.72
-525414.6
-520291.69
-515012.71
-509583.2
-589688.78
-589455.68
-588943.76
-588168.19
-587133.78
-585844.69
-584306.09
-582526.13
-580538.58
-578375
-576032.86
-573493.84
-570751.25
-567810.37
-564676.46
-561354.93
-557850.46
-554169.08
-550325.17
-546332.42
-542167.56
-537806.63
-533257.21
-528528.54
-523626.98
-518562.22
-513343.31
-507976.14
-587230.16
-586999.58
-586493.16
-585725.87
-584702.43
-583426.79
-581903.57
-580140.74
-578170.65
-576024.31
-573700.63
-571182.04
-568462.01
-565547.14
-562442.61
-559152.21
-555680.36
-552033.76
-548226.89
-544272.07
-540149.45
-535837.25
-531339.78
-526664.37
-521818.82
-516812.78
-511653.71
-506348.91
-584751.65
-584523.6
-584022.72
-583263.81
-582251.53
-580989.75
-579482.57
-577737.4
-575784.92
-573655.79
-571350.33
-568851.72
-566155.1
-563267.24
-560191.63
-556931.91
-553492.64
-549880.95
-546110.82
-542193.33
-538113.09
-533849.7
-529403.55
-524780.89
-519990.99
-515043.42
-509943.83
-504700.93
-582253.7
-582028.22
-581533
-580782.65
-579781.75
-578534.07
-577043.16
-575315.78
-573380.9
-571268.83
-568981.15
-566503.51
-563831.52
-560970.21
-557923.03
-554693.29
-551287.05
-547710.74
-543976.6
-540095.77
-536057.88
-531843.18
-527447.29
-522877.52
-518143.36
-513253.08
-508212.84
-503031.6
-579736.74
-579513.87
-579024.35
-578282.59
-577293.11
-576059.55
-574584.9
-572875.22
-570957.82
-568862.5
-566593.65
-564138.23
-561490.52
-558655.33
-555635.91
-552436.6
-549063.91
-545522.8
-541824.35
-537980.33
-533984.97
-529818.23
-525471.92
-520954.81
-516276.26
-511442.78
-506461.83
-501342.22
-577200.85
-576980.57
-576496.73
-575763.54
-574785.41
-573565.89
-572107.4
-570415.29
-568515.31
-566437.88
-564189.09
-561755.78
-559132.13
-556322.67
-553331.08
-550162.8
-546823.77
-543317.74
-539654.76
-535847.74
-531895.03
-527775.47
-523478.67
-519014.2
-514390.63
-509613.36
-504691.13
-499632.71
-574645.94
-574428.23
-573950.04
-573225.37
-572258.52
-571052.97
-569610.58
-567936.26