/*--------------------------------*- C++ -*----------------------------------*\
  =========                 |
  \\      /  F ield         | OpenFOAM: The Open Source CFD Toolbox
   \\    /   O peration     | Website:  https://openfoam.org
    \\  /    A nd           | Version:  7
     \\/     M anipulation  |
\*---------------------------------------------------------------------------*/
FoamFile
{
    version     2.0;
    format      ascii;
    class       volScalarField;
    location    "50000";
    object      epsilon;
}
// * * * * * * * * * * * * * * * * * * * * * * * * * * * * * * * * * * * * * //

dimensions      [0 2 -3 0 0 0 0];

internalField   nonuniform List<scalar> 
113400
(
65844.447
66645.691
67515.695
71004.409
82249.11
90612.85
102937.56
118864.07
135703.53
150640.05
155026.16
165016.72
235184.73
502418.59
1170804.5
1404343.9
1531296.9
1612099.7
1684039.6
1760775.9
1847622.7
1947467.9
2062022.4
2224894.5
2369488
2384208
2167385.3
1583786.9
71647.462
73258.206
76219.811
79947.7
83999.261
89877.058
96420.209
104403.85
112467.62
119953.39
130989.49
166232.98
314221.11
527516.9
726747.38
868065.06
953164.06
1021247.8
1079938.9
1140335.9
1203637.7
1269118
1333249.4
1388319.8
1421958.5
1416541.8
1359785.9
1240784.7
72317.434
73584.592
75778.66
78283.739
80456.366
82969.014
85849.854
90114.295
96365.847
105225.14
125758.08
215168.29
326910.23
397006.39
491050.69
572606.09
631370.43
681190.8
727017.68
772689.22
819289.55
866108.29
910985.34
949218.68
976677.42
990209.22
989088.64
972910.77
67927.573
68547.96
69587.031
70645.823
71752.133
73147.36
75546.589
79290.105
85909.292
100112.23
147247.4
237044.98
272029.11
304251.4
356832.34
406295.89
451518.75
490930.5
529877.35
569506.19
610022.58
649787.35
687138.58
719662.19
744792.17
760286.84
764472.06
756019.05
62217.566
62310.395
62494.991
62526.481
63333.036
64432.068
67109.869
71237.904
79903.111
102597.12
164742.21
209876.13
219688.19
237557.96
269124.28
301398.9
335281.93
367029.73
398839.49
431123.19
463577.29
495020.74
523861.49
548378.57
566785.62
577557.55
579618.48
572428.32
56204.252
55959.394
55737.902
55959.358
56480.494
58033.078
60816.093
66118.944
78674.936
114459.63
163901.66
180645.73
180776.29
191600.22
211059.9
234390.82
260482.61
286318.24
312945.75
339944.63
366770.35
392478.84
415499.29
434430.49
448027.09
455301.66
455679.87
449020.95
50797.596
50506.603
50214.498
50715.444
51481.154
53327.953
56819.955
64757.758
82948.109
123991.98
146546.83
150963.65
150618.97
157680.97
170348.08
188481.96
209122.69
230335.87
252396.3
274660.77
296499.98
316917.52
334871.06
349229.49
359113.3
363928.93
363404.78
357565.93
46205.918
46029.36
46043.894
46459.399
47621.575
49907.698
54852.21
65185.482
90057.2
122582.6
130415.32
127676.47
127895.59
132920.85
142337.58
156660.5
173311.6
191032.91
209447.39
227838.59
245557.58
261810.25
275824.51
286819.59
294158.72
297430.09
296504.42
291467.79
42448.705
42382.234
42578.981
43235.308
44733.349
47898.997
54385.688
67775.123
94908.951
111045.23
115060.6
110766.38
110510.98
114495.76
122166.76
133673.06
147338.38
162170.95
177538.59
192690.13
207012.55
219938.3
230817.09
239173.78
244588.1
246796.16
245684.74
241361.49
39431.357
39493.152
39824.628
40750.349
42757.834
46888.334
54853.556
71230.185
92283.204
98036.48
99077.924
96494.889
96479.821
99852.937
106493.13
116135.82
127480.46
139893.22
152714.65
165260.66
176940.08
187278.45
195853.29
202265.25
206281.2
207747.27
206618.01
202951.72
37007.268
37203.919
37769.068
38970.832
41605.413
46625.512
56188.006
73697.494
85659.072
87982.037
85960.389
84645.047
85252.133
88450.565
94361.691
102663.63
112210.09
122633.67
133346.76
143746.86
153313.72
161644.14
168444.54
173432.36
176422.7
177340.48
176197.62
173050.27
35059.482
35364.147
36132.429
37780.887
40927.235
46786.154
57260.243
72158.926
77704.64
79247.038
76540.84
75358.221
76279.002
79471.253
84761.29
91971.978
100158.58
108967.79
117957.08
126604.31
134479.95
141254.33
146679.96
150587.15
152838.41
153376.49
152222.64
149456.84
33512.241
33931.783
34983.723
36984.071
40687.426
47229.539
57956.807
67174.661
69851.005
70721.999
68702.749
67782.465
68897.337
72004.202
76802.341
83127.113
90213.674
97730.819
105328.15
112565.58
119105.06
124668.92
129055.39
132141.03
133849.32
134137.03
133019.4
130564.85
32315.21
32847.152
34136.462
36514.683
40720.735
47360.37
57199.57
61647.049
62909.058
62723.151
61565.664
61332.085
62832.933
65782.303
70208.617
75758.669
81924.681
88420.015
94877.159
100980.62
106454.16
111064.19
114651.5
117118.03
118412.19
118522.68
117460.28
115277.13
31366.739
31982.93
33450.433
36059.499
40173.014
46365.18
53929.972
56608.884
57224.42
56117.019
55463.059
55847.131
57724.409
60527.231
64631.042
69528.432
74940.41
80591.255
86115.457
91308.971
95926.607
99786.984
102755.68
104753.18
105740.25
105719.97
104715.89
102768.57
30590.523
31260.99
32831.72
35483.017
39539.758
45549.286
50457.731
52046.931
52422.303
51059.264
50582.577
51290.551
53320.117
56045.464
59839.767
64226.797
69022.532
73960.398
78731.333
83190.754
87122.331
90387.344
92868.549
94503.595
95261.807
95149.576
94195.994
92444.243
29910.813
30606.207
32209.714
34845.169
38776.542
44012.224
46817.218
47865.465
48031.571
46863.923
46533.117
47484.636
49472.04
52111.18
55641.112
59643.304
63914.844
68256.715
72416.281
76277.347
79657.521
82442.222
84539.088
85893.802
86481.684
86311.269
85409.243
83818.113
29216.067
29898.591
31443.07
33892.191
37300.021
41211.563
43138.805
43894.374
43934.703
43180.67
43024.876
44156.804
46044.906
48626.782
51896.181
55564.414
59383.989
63216.325
66892.359
70270.849
73211.339
75615.847
77414.997
78556.611
79021.986
78820.545
77976.802
76527.625
28436.107
29070.296
30478.372
32626.115
35418.192
38322.556
39697.552
40179.351
40005.383
39679.556
39866.287
41116.624
42975.558
45493.626
48511.167
51866.09
55315.158
58728.135
62018.166
65010.355
67603.418
69711.608
71278.904
72260.827
72640.866
72429.003
71647.879
70329.074
27554.797
28121.012
29357.718
31185.341
33459.522
35691.19
36696.814
36982.549
36605.963
36527.708
37118.789
38435.793
40265.025
42679.707
45488.12
48574.13
51719.314
54804.485
57767.005
60439.643
62749.572
64619.397
66001.132
66859.864
67178.246
66967.491
66248.571
65045.038
26584.151
27078.202
28142.891
29679.935
31534.849
33270.395
33997.724
34206.376
33811.278
33877.858
34716.254
36049.522
37846.122
40156.147
42785.918
45650.923
48541.932
51362.554
54044.977
56447.32
58521.756
60196.177
61428.654
62188.846
62463.179
62261.175
61601.387
60501.497
25542.681
25967.781
26873.968
28157.19
29664.613
31011.675
31528.442
31692.352
31401.272
31613.462
32539.737
33893.105
35674.635
37875.692
40349.299
43031.597
45711.212
48299.097
50728.538
52909.402
54791.157
56307.176
57420.782
58104.334
58349.556
58162.341
57559.397
56556.166
24455.51
24818.476
25585.448
26655.391
27888.028
28946.593
29316.445
29439.66
29292.492
29672.093
30609.643
31967.744
33735.423
35824.471
38168.174
40676.841
43165.154
45541.733
47749.172
49754.008
51476.62
52863.379
53881.759
54506.991
54732.284
54564.789
54017.402
53103.981
23353.476
23664.743
24319.979
25231.889
26291.573
27063.183
27329.367
27431.691
27429.621
27942.056
28882.077
30232.433
31964.859
33957.313
36185.689
38524.652
40837.572
43037.132
45070.524
46925.619
48511.393
49789.774
50730.686
51311.356
51525.055
51380.936
50887.582
50057.921
22260.724
22531.16
23100.123
23892.726
24812.991
25328.559
25538.091
25642.939
25808.497
26366.273
27314.54
28650.647
30335.001
32241.446
34354.08
36543.885
38706.2
40759.613
42655.278
44376.218
45841.47
47027.155
47904.327
48451.171
48660.8
48541.422
48100.902
47349.977
21187.999
21423.361
21915.84
22592.133
23344.955
23720.914
23909.719
24041.631
24348.261
24926.62
25884.227
27219.032
28838.461
30657.295
32656.001
34714.722
36746.466
38673.749
40447.527
42037.895
43409.904
44522.461
45350.33
45873.641
46085.767
45994.018
45604.392
44927.489
20141.848
20344.936
20765.982
21333.009
21937.316
22245.495
22428.698
22631.931
22987.644
23602.928
24573.349
25905.786
27450.568
29184.671
31075.976
33017.111
34935.647
36750.572
38415.789
39898.089
41197.268
42247.766
43035.954
43542.973
43761.998
43699.081
43357.646
42750.498
19127.822
19301.881
19659.84
20134.481
20626.355
20891.631
21086.754
21341.756
21729.474
22380.054
23359.724
24671.943
26155.596
27818.346
29609.89
31446.706
33269.776
34983.086
36557.17
37958.692
39185.978
40178.147
40931.038
41425.221
41652.811
41618.12
41323.55
40781.797
18152.821
18302.103
18607.544
19009.1
19420.166
19656.086
19884.666
20137.608
20572.656
21254.119
22248.321
23527.858
24960.537
26565.143
28259.522
30001.604
31735.801
33358.376
34851.803
36179.4
37331.615
38277.698
39003.025
39489.027
39727.524
39721.597
39473.04
38993.41
17224.192
17353.501
17617.651
17964.729
18321.163
18551.267
18798.016
19055.429
19522.688
20227.9
21239.183
22473.868
23858.141
25403.724
27009.388
28670.985
30314.949
31857.729
33274.806
34532.549
35617.097
36529.625
37232.242
37713.372
37964.391
37987.266
37783.234
37362.724
16345.694
16459.224
16691.264
16996.948
17312.976
17548.19
17792.88
18073.05
18561.928
19284.277
20297.911
21488.836
22826.924
24310.962
25840.603
27428.409
28986.836
30457.005
31806.118
33005.05
34040.435
34920.099
35600.061
36076.858
36340.457
36391.301
36229.785
35865.019
15519.389
15620.573
15827.824
16102.435
16390
16623.982
16873.38
17177.458
17683.548
18427.255
19418.013
20568.483
21862.263
23285.341
24742.832
26256.545
27739.984
29145.567
30437.275
31586.676
32581.433
33423.267
34085.4
34560.365
34837.357
34915.686
34795.058
34483.405
14746.056
14837.601
15025.702
15276.776
15543.243
15774.522
16033.545
16359.751
16881.261
17643.42
18598.124
19708.728
20963.096
22307.3
23703.326
25150.838
26569.807
27922.823
29159.753
30263.262
31219.129
32024.12
32676.584
33152.212
33443.36
33548.661
33467.314
33206.18
14024.392
14108.34
14281.485
14514.343
14764.547
14996.539
15265.835
15611.09
16150.081
16907.57
17828.237
18901.008
20113.084
21381.24
22724.949
24110.863
25471.638
26774.631
27960.083
29023.609
29946.532
30726.298
31369.671
31844.475
32148.48
32279.183
32234.977
32021.558
13352.401
13430.71
13592.499
13811.726
14050.999
14285.482
14565.015
14926.916
15484.192
16217.604
17104.715
18141.165
19308.472
20522.186
21812.245
23137.245
24440.655
25691.669
26833.192
27863.079
28759.277
29520.912
30149.624
30624.184
30940.651
31095.524
31086.503
30918.204
12729.109
12803.154
12956.334
13165.552
13398.014
13636.633
13925.124
14308.536
14864.916
15571.623
16427.982
17434.169
18556.381
19722.673
20965.026
22226.865
23472.963
24673.323
25774.68
26774.229
27645.988
28389.617
29001.431
29480.79
29810.561
29989.059
30013.709
29888.269
12152.831
12223.367
12369.85
12571.75
12800.174
13043.644
13340.046
13745.6
14283.162
14967.984
15798.244
16778.959
17852.764
18974.779
20169.317
21368.762
22560.933
23714.541
24781.185
25750.904
26599.703
27327.379
27929.147
28412.995
28753.687
28953.674
29009.742
28924.607
11620.498
11688.238
11829.559
12026.174
12252.625
12500.191
12810.333
13217.312
13737.434
14402.388
15208.436
16160.196
17187.715
18267.641
19413.09
20558.325
21705.509
22815.051
23849.877
24789.291
25617.377
26332.114
26928.535
27410.851
27760.363
27979.711
28064.942
28017.614
11129.001
11194.465
11331.639
11524.049
11748.886
12001.436
12319.67
12716.365
13224.683
13871.799
14658.054
15573.685
16559.299
17600.126
18699.673
19796.208
20901.47
21968.482
22972.121
23882.78
24692.544
25393.914
25982.717
26458.617
26820.06
27058.942
27172.356
27161.12
10675.146
10738.645
10872.187
11060.695
11283.44
11540.796
11854.643
12245.506
12744.539
13376.351
14145.789
15021.728
15968.239
16974.535
18024.977
19073.993
20136.214
21164.585
22137.631
23022.169
23815.578
24504.019
25085.874
25559.553
25933.535
26190.034
26329.62
26352.147
10255.615
10317.32
10447.489
10632.178
10852.552
11109.877
11418.485
11804.099
12294.472
12913.026
13660.196
14498.415
15407.425
16376.825
17369.668
18380.202
19403.693
20396.876
21340.61
22203.016
22982.563
23661.52
24240.145
24717.263
25099.528
25370.171
25532.937
25586.321
9867.2926
9927.2491
10054.039
10234.629
10451.549
10705.653
11010.766
11391.316
11873.61
12483.161
13198.355
14000.094
14871.392
15800.234
16744.373
17722.434
18709.313
19669.969
20587.459
21433.536
22198.006
22867.763
23442.885
23921.495
24306.264
24592.459
24777.965
24860.709
9507.2797
9565.5773
9688.9929
9865.3049
10078.453
10329.445
10631.127
11006.528
11482.298
12078.651
12760.065
13527.928
14365.886
15257.427
16165.7
17109.818
18058.583
18986.946
19879.166
20707.785
21455.315
22115.864
22686.892
23165.834
23554.042
23857.194
24063.928
24174.202
9173.2116
9230.0069
9350.2144
9522.5347
9732.6497
9980.6068
10279.038
10649.443
11121.696
11694.062
12346.477
13084.785
13895.38
14750.978
15626.002
16536.942
17445.896
18341.37
19206.817
20014.212
20747.174
21400.136
21968.686
22450.161
22846.55
23163.238
23388.236
23523.425
8863.154
8918.5161
9035.7763
9204.5633
9412.2672
9657.4669
9952.7365
10321.175
10783.718
11330.294
11956.403
12667.898
13451.364
14272.516
15115.787
15992.975
16863.857
17727.73
18566.787
19353.167
20073.023
20719.577
21286.664
21771.418
22176.051
22503.311
22745.097
22903.467
8575.1252
8629.0855
8743.6212
8909.1408
9114.4978
9356.9186
9649.0699
10016.025
10459.88
10984.47
11586.716
12274.404
13027.513
13816.542
14630.296
15474.64
16311.231
17147.236
17959.786
18725.718
19433.72
20073.493
20638.592
21125.597
21536.469
21871.057
22130.902
22312.029
8307.5215
8360.1904
8472.2493
8634.8349
8838.1684
9077.8608
9369.3448
9726.4965
10152.539
10657.224
11238.201
11904.975
12626.212
13384.926
14172.017
14983.57
15787.548
16596.781
17383.144
18130.402
18828.277
19459.241
20021.277
20509.606
20925.965
21269.338
21546.805
21748.752
8058.6581
8110.128
8219.8753
8379.6363
8580.7034
8818.3416
9105.3355
9448.4226
9859.9788
10346.667
10908.435
11552.83
12243.603
12973.375
13733.411
14505.787
15283.108
16067.612
16831.803
17563.666
18250.137
18872.126
19431.701
19921.969
20344.83
20699.295
20991.3
21211.442
7826.7736
7877.0372
7984.3874
8141.0286
8338.9915
8573.3403
8851.0342
9183.1038
9582.1094
10052.83
10598.797
11215.699
11877.262
12578.356
13309.366
14046.433
14802.213
15563.377
16307.655
17024.882
17698.053
18313.172
18871.078
19363.689
19793.01
20157.768
20462.145
20698.794
7610.7036
7659.8081
7764.8704
7918.6462
8114.082
8341.0465
8609.9386
8931.8044
9319.2482
9775.6668
10304.621
10892.671
11527.587
12202.973
12906.923
13618.028
14350.235
15087.371
15811.491
16513.042
17173.772
17783.507
18339.381
18834.193
19268.685
19641.988
19955.216
20208.649
7409.446
7457.4716
7560.4347
7711.5306
7904.3549
8122.1379
8382.777
8695.1693
9071.9877
9517.0151
10023.093
10585.768
11197.362
11851.12
12528.839
13216.913
13926.905
14638.389
15341.442
16026.508
16675.31
17279.667
17833.267
18330.038
18768.546
19149.224
19471.64
19741.475
7221.3828
7268.2565
7368.8534
7516.5122
7704.8983
7915.528
8168.9262
8472.9519
8841.322
9273.0853
9755.772
10295.934
10885.879
11518.513
12171.415
12838.331
13526.307
14212.115
14894.685
15563.656
16201.186
16800.901
17351.013
17848.624
18290.863
18678.967
19012.403
19296.155
7044.7782
7090.3455
7188.167
7331.7227
7514.7819
7720.0988
7967.1891
8263.8044
8625.009
9038.495
9501.0741
10021.069
10591.775
11201.754
11832.505
12478.711
13144.039
13806.641
14470.498
15124.172
15750.787
16344.616
16890.107
17388.092
17834.029
18229.298
18573.132
18869.38
6878.4972
6922.6951
7017.6305
7157.0879
7335.2544
7536.4683
7778.3431
8070.65
8419.8366
8814.9753
9259.3715
9761.3186
10314.836
10901.778
11511.652
12138.552
12781.675
13422.763
14069.756
14707.134
15321.589
15907.129
16448.585
16946.908
17396.23
17797.93
18150.876
18457.492
6721.658
6764.532
6856.7124
6992.3555
7166.1278
7363.8254
7601.8477
7887.5179
8221.3553
8599.8973
9028.4635
9514.5167
10050.211
10615.658
11205.895
11815.203
12435.71
13056.238
13686.2
14306.974
14909.335
15486.437
16023.895
16522.268
16974.456
17381.759
17742.652
18058.628
6573.4148
6615.0306
6704.601
6836.6319
7006.1826
7200.3225
7433.4042
7707.8488
8028.7896
8391.555
8807.5783
9280.4533
9796.1589
10341.189
10911.779
11501.712
12097.078
12700.964
13314.992
13921.661
14513.897
15082.544
15615.927
16114.086
16568.799
16981.359
17350.002
17676.186
6433.1606
6473.559
6560.5927
6689.0729
6854.3705
7044.455
7270.2191
7534.262
7843.8944
8193.4011
8598.2067
9056.7442
9552.1871
10077.639
10629.475
11198.845
11772.478
12362.388
12961.362
13555.201
14138.007
14698.041
15227.692
15725.408
16182.266
16599.694
16975.793
17312.154
6300.388
6339.5937
6424.1211
6548.9977
6709.6706
6894.8328
7113.2011
7368.8249
7668.8307
8007.893
8401.8776
8842.6983
9319.6753
9827.4195
10362.993
10913.346
11470.662
12045.987
12628.292
13208.649
13781.295
14333.825
14861.439
15357.02
15814.995
16236.402
16619.047
16964.488
6174.6188
6212.6542
6294.6162
6415.6446
6571.3696
6751.4059
6963.4314
7211.8913
7503.5618
7834.2392
8215.9015
8638.9646
9098.8795
9590.3996
10110.276
10643.333
11186.03
11746.673
12311.941
12879.038
13441.529
13987.174
14511.891
15004.275
15463.352
15887.841
16276.01
16629.2
6055.0499
6091.8739
6171.1647
6288.2606
6439.1677
6614.4504
6820.7534
7062.8382
7347.2662
7670.285
8037.2828
8444.7126
8889.2462
9366.7303
9869.712
10386.668
10915.207
11460.543
12010.292
12564.93
13117.29
13655.368
14175.167
14665.31
15125.766
15552.728
15945.993
16305.606
5940.8898
5976.4979
6053.2116
6166.6659
6313.1976
6484.2926
6685.6311
6922.3183
7201.4965
7514.0771
7866.9836
8260.169
8690.7705
9155.0104
9641.1438
10143.226
10659.111
11189.144
11724.339
12267.729
12809.014
13338.735
13852.884
14340.627
14801.783
15231.002
15629.026
15994.557
5831.889
5866.3866
5940.7843
6050.9995
6193.7199
6361.3167
6558.594
6791.7083
7063.5515
7364.3016
7704.5984
8084.8656
8503.1869
8952.8468
9423.7276
9912.2295
10416.213
10931.119
11452.535
11984.468
12514.201
13035.508
13543.771
14028.718
14489.88
14921.107
15323.254
15694.608
5727.9966
5761.5056
5833.8539
5941.2257
6080.636
6245.2406
6439.3953
6667.9532
6929.729
7220.4612
7549.4311
7918.168
8325.2614
8759.7331
9216.2975
9691.8051
10183.466
10684.23
11192.395
11712.467
12231.842
12745.719
13247.809
13729.606
14190.303
14623.023
15028.638
15405.236
5629.193
5661.8212
5732.3449
5837.1838
5973.6282
6135.5103
6326.1294
6547.7298
6800.7736
7082.6496
7401.5559
7760.4918
8155.1018
8575.4118
9018.961
9483.2655
9961.6842
10448.897
10944.787
11453.212
11962.843
12469.632
12965.173
13443.893
13903.403
14336.836
14745.029
15125.844
5535.2837
5567.0976
5635.9196
5738.348
5871.8458
6030.6101
6216.317
6431.0966
6676.8025
6950.8885
7260.9523
7610.9396
7992.3079
8399.8457
8831.5112
9284.9264
9749.6946
10223.782
10708.608
11205.24
11705.282
12204.646
12694.251
13170.562
13627.613
14060.839
14470.63
14854.604
5445.8544
5476.8639
5543.9792
5643.9097
5774.1191
5929.0663
6109.643
6318.6583
6558.1082
6825.4209
7128.5913
7467.6645
7836.3946
8231.9041
8652.2904
9093.0969
9544.7049
10005.238
10480.419
10966.292
11457.527
11949.701
12433.921
12907.277
13361.205
13794
14204.947
14591.601
5360.5111
5390.6594
5455.9747
5553.2475
5679.9432
5830.9171
6006.8501
6210.7985
6444.7991
6706.5441
7002.1707
7329.3871
7686.4495
8070.8916
8480.7627
8908.3494
9347.569
9796.4831
10262.115
10738.035
11221.316
11706.03
12184.409
12653.628
13104.93
13537.778
13949.349
14338.291
5278.779
5308.0454
5371.5201
5466.1006
5589.365
5736.5787
5908.2591
6107.6772
6336.9546
6593.2961
6879.38
7196.2332
7542.8698
7917.4834
8316.6679
8732.1862
9160.7638
9600.7407
10055.587
10521.526
10996.825
11473.299
11945.393
12410.002
12858.831
13291.425
13703.282
14094.519
5200.3371
5228.776
5290.4911
5382.5203
5502.5966
5646.4173
5814.3689
6009.9985
6235.5525
6484.7808
6761.6609
7069.187
7406.5835
7772.4336
8160.1489
8564.6731
8983.4304
9414.5076
9858.7121
10314.827
10781.583
11249.9
11715.861
12175.702
12621.734
13053.358
13465.513
13858.585
5125.221
5152.9015
5213.0103
5302.7439
5420.0239
5560.998
5725.9806
5919.1655
6139.0853
6380.3408
6648.9739
6948.0994
7277.4129
7634.0343
8010.6669
8405.0752
8814.9955
9236.4289
9670.5599
10117.309
10575.366
11036.13
11496.555
11950.992
12393.697
12823.765
13235.593
13629.564
5053.5561
5080.568
5139.271
5227.0257
5341.9509
5480.6227
5643.4365
5832.6978
6045.4504
6279.8232
6541.0466
6832.693
7154.7411
7501.1904
7867.8623
8253.0612
8654.6761
9066.4777
9491.2759
9929.5702
10378.582
10831.78
11286.228
11734.908
12174.354
12602.368
13013.327
13407.629
4985.3539
5011.7696
5069.2176
5155.1927
5267.9564
5404.3643
5564.0609
5747.8227
5954.7989
6183.249
6438.0786
6723.5998
7037.4558
7374.0759
7731.5368
8108.3021
8501.0521
8903.9103
9319.9813
9749.7899
10189.727
10635.469
11083.682
11527.45
11964.439
12389.341
12798.771
13192.801
4920.4205
4946.2657
5002.4943
5086.6539
5197.0174
5330.5498
5486.1814
5665.3369
5867.4502
6090.8054
6340.3063
6619.7164
6924.5718
7252.3754
7601.4664
7970.5513
8354.0072
8748.4011
9156.2179
9577.1366
10008.796
10447.789
10889.802
11328.682
11762.329
12183.491
12591.269
12984.499
4858.5797
4883.8135
4938.705
5020.8377
5128.4982
5258.8054
5410.7039
5585.8204
5783.7405
6002.6666
6247.7321
6519.7396
6816.367
7136.1622
7477.7511
7838.8488
8213.4537
8600.046
9000.3648
9412.2636
9835.9843
10268.422
10703.519
11136.784
11565.836
11983.696
12389.937
12781.743
4799.3759
4823.9542
4877.4256
4957.456
5062.4286
5189.6836
5338.2195
5509.8553
5704.2909
5919.9505
6159.4139
6423.7727
6712.9229
7025.4251
7360.1856
7712.5418
8078.8957
8458.0587
8850.7709
9253.8389
9669.8123
10095.267
10523.326
10950.926
11375.266
11789.768
12194.032
12584.131
4742.3973
4766.3449
4818.4729
4896.5429
4999.0437
5123.5599
5269.1818
5437.9509
5629.7891
5841.1569
6073.9552
6331.5724
6613.9964
6920.1024
7247.5404
7591.3741
7950.0147
8322.4272
8706.8015
9101.4713
9510.0414
9928.238
10349.747
10772.226
11191.337
11602.036
12003.759
12392.164
4687.7202
4711.0972
4762.0108
4838.3285
4938.6593
5060.8419
5204.0987
5370.825
5559.012
5764.6409
5991.5792
6243.1658
6519.5598
6819.771
7139.187
7475.2403
7826.7139
8192.515
8568.4834
8955.2451
9356.9372
9767.6068
10182.608
10599.629
11013.119
11419.949
11818.981
12205.464
4635.5224
4658.3998
4708.256
4783.0669
4881.567
5001.8424
5143.3012
5307.2547
5490.4106
5690.8951
5912.5639
6158.828
6430.1598
6723.5303
7035.0851
7363.6986
7708.3225
8066.412
8433.7675
8813.5126
9208.4416
9611.7578
10020.418
10431.797
10840.422
11244.201
11639.898
12023.926
4585.9033
4608.3388
4657.2593
4730.7307
4827.5813
4946.0381
5085.1318
5245.1416
5423.7337
5619.7416
5836.7776
6078.4855
6344.4248
6630.2711
6934.5241
7256.1103
7594.0446
7944.012
8303.1884
8677.0394
9064.9271
9461.5446
9864.5541
10270.371
10674.342
11074.772
11466.266
11847.477
4538.8142
4560.8291
4608.8395
4680.9435
4775.9534
4892.1325
5028.1329
5184.4521
5359.1981
5551.3254
5764.3657
6001.8623
6261.3617
6540.4005
6838.044
7153.4736
7484.4811
7826.9552
8179.3202
8547.2519
8927.7317
9317.8003
9715.1574
10114.899
10513.764
10909.826
11297.374
11676.079
4494.0971
4515.6456
4562.6415
4633.1985
4726.1133
4839.7295
4972.7777
5125.8944
5297.3991
5486.2556
5696.1918
5928.539
6181.6339
6454.4413
6746.0831
7055.7749
7379.6543
7715.1954
8061.4511
8422.7138
8795.7743
9179.2502
9570.4981
9964.1312
10357.841
10749.217
11133
11508.995
4451.3232
4472.3695
4518.2841
4587.234
4678.0768
4789.2741
4919.6609
5070.0303
5238.8642
5425.2963
5631.2777
5857.8246
6105.1873
6372.3659
6658.7811
6961.981
7278.9678
7608.1314
7948.7652
8302.8922
8668.7874
9045.9668
9430.6732
9818.3161
10207.036
10593.185
10972.785
11345.479
4410.2075
4430.7817
4475.681
4543.1405
4632.0881
4741.1251
4869.2168
5017.3303
5184.1328
5367.2957
5568.2979
5789.7519
6031.9857
6294.1881
6575.2975
6871.6683
7182.2231
7505.4742
7840.3846
8187.5036
8546.5955
8917.5714
9295.4343
9677.0373
10060.399
10441.033
10816.432
11185.762
4370.8943
4391.0438
4435.0352
4501.1795
4588.4891
4695.7203
4822.0003
4968.4139
5132.1866
5310.9584
5507.4842
5724.3477
5961.9639
6219.6804
6494.665
6784.7499
7089.332
7407.154
7735.6928
8076.0995
8428.556
8793.0051
9164.1961
9539.8744
9917.7976
10293.552
10665.496
11030.816
4333.5966
4353.3768
4396.5833
4461.602
4547.5287
4653.2647
4777.9692
4921.9205
5081.6916
5256.549
5449.093
5661.9432
5895.7156
6148.3452
6417.1356
6701.3514
7000.4046
7312.6817
7634.8991
7969.0199
8315.3939
8673.0175
9037.8567
9408.1059
9780.3809
10151.21
10519.161
10879.661
4298.3631
4317.8099
4360.304
4424.2858
4508.8676
4612.9758
4735.5579
4876.3052
5032.6727
5204.1844
5393.308
5602.8134
5832.4533
6079.3497
6342.5277
6621.3418
6915.332
7221.471
7537.8216
7866.0042
8206.3004
8557.0768
8915.7514
9280.34
9646.5011
10011.989
10375.036
10731.047
4265.171
4284.2734
4326.0136
4388.8371
4471.8505
4573.9766
4694.0622
4831.9849
4985.4657
5154.1261
5340.4192
5546.5834
5771.2477
6012.8645
6270.8955
6544.835
6833.4661
7133.4602
7444.1943
7766.78
8100.3318
8444.441
8796.9634
9155.4612
9515.7313
9876.0164
10233.975
10585.645
4233.712
4252.4291
4293.3275
4354.8697
4436.1914
4536.28
4654.0432
4789.4772
4940.5045
5106.8206
5290.4995
5492.4867
5712.1912
5948.9129
6202.1525
6471.4388
6754.1503
7048.4303
7353.8409
7670.9027
7997.6101
8335.3323
8682.0321
9034.1719
9388.569
9743.6563
10096.178
10443.336
4203.602
4221.929
4261.9871
4322.2948
4402.0246
4500.2379
4615.9382
4749.2498
4898.2784
5062.4049
5242.6749
5440.211
5655.4554
5887.7553
6136.8079
6400.8433
6677.686
6966.456
7266.7915
7577.6365
7897.679
8229.2066
8569.9738
8915.7028
9264.3389
9614.1193
9961.3865
10304.444
4174.8433
4192.8148
4232.1084
4291.2961
4369.6034
4466.1773
4580.1328
4711.7305
4858.6754
5019.8025
5196.1988
5389.7607
5600.9722
5829.3277
6073.8599
6332.0956
6603.2639
6886.5382
7181.4773
7485.1837
7799.5106
8125.5034
8460.1548
8799.9086
9143.1495
9487.5988
9829.9848
10169.038
4147.5901
4165.2446
4203.8594
4262.0598
4339.1271
4434.2934
4546.7594
4676.4288
4820.4777
4978.1602
5151.0509
5340.988
5548.5309
5772.9889
6012.2653
6265.0591
6530.8557
6809.0321
7097.9797
7395.2576
7704.5899
8025.189
8353.6829
8687.6994
9025.6836
9364.491
9701.7218
10036.024
4121.9362
4139.3023
4177.2975
4234.5912
4310.4884
4404.2383
4514.9479
4642.0928
4783.0512
4937.6991
5107.4555
5294.1847
5498.51
5718.4853
5952.5969
6200.347
6461.2652
6734.4737
7017.6349
7309.5725
7613.5669
7928.0592
8250.3099
8578.5156
8910.9005
9243.8813
9575.7865
9905.0241
4097.9245
4114.9985
4152.3533
4208.6659
4283.2354
4375.3044
4483.8973
4608.4948
4746.8138
4898.851
5065.9255
5250.0366
5450.5404
5665.6744
5895.0187
6138.0958
6394.5086
6662.3126
6940.1381
7227.0129
7525.7121
7833.7578
8149.8825
8472.4566
8798.8891
9126.2144
9453.0974
9777.2901
4075.3208
4092.069
4128.7092
4183.9318
4257.0502
4347.3409
4453.878
4576.216
4712.2973
4862.1493
5027.1141
5208.0067
5404.0945
5614.8432
5839.8695
6078.8324
6330.5131
6593.0464
6865.7036
7147.7432
7440.7766
7742.4698
8052.6663
8369.6226
8689.9824
9011.7716
9333.604
9652.5884
4053.7517
4070.1654
4106.0821
4160.2362
4231.9737
4320.6114
4425.2935
4545.6692
4679.8773
4827.9082
4990.1581
5167.1154
5359.2147
5565.9619
5787.0998
6021.9304
6268.4999
6526.1018
6793.728
7071.0113
7358.077
7653.6271
7958.0262
8268.9773
8583.3136
8899.5182
9215.9975
9529.72
4033.1933
4049.299
4084.551
4137.7255
4208.2074
4295.3641
4398.4187
4517.113
4649.5167
4795.1146
4953.9606
5127.3687
5315.8368
5518.945
5736.4674
5966.6587
6208.3019
6461.1046
6724.0902
6996.257
7277.4808
7567.1321
7865.8916
8170.6395
8479.0949
8789.927
9100.7642
9409.188
4013.7759
4029.6024
4064.2525
4116.5427
4185.8969
4271.7292
4373.3176
4490.2403
4620.2889
4762.9455
4918.7434
5088.9928
5274.2455
5474.2156
5687.6281
5913.0143
6149.9535
6398.1469
6656.4929
6923.3158
7198.9549
7482.9466
7775.8715
8074.4936
8377.2323
8682.6329
8987.7321
9290.9744
3995.5617
4011.1303
4045.2231
4096.688
4164.958
4249.4452
4349.4022
4464.1788
4591.6546
4731.7158
4884.8072
5052.284
5234.7878
5431.1782
5640.0374
5860.9137
6093.3878
6337.2112
6590.4154
6851.9974
7122.0812
7400.6448
7687.474
7980.1585
8277.3126
8577.0044
8876.5612
9174.7274
3978.6017
3993.9042
4027.4117
4077.9801
4145.0441
4228.005
4326.1034
4438.6839
4563.8868
4701.6539
4852.364
5017.4619
5196.7984
5389.0069
5593.622
5810.2398
6038.5201
6277.5638
6525.3106
6781.581
7045.9158
7319.3471
7600.3647
7887.4746
8179.2887
8473.2213
8767.3498
9060.5269
3962.6117
3977.6181
4010.4752
4060.0558
4125.8127
4207.1648
4303.4725
4414.0522
4537.2415
4672.9913
4821.6796
4983.9741
5159.5123
5347.7327
5548.3047
5760.8769
5984.8482
6218.6699
6461.2383
6712.4223
6971.5785
7239.7976
7515.1861
7796.8897
8083.2226
8371.4637
8660.2709
8948.3748
3947.2585
3961.9654
3994.1739
4042.7927
4107.2954
4187.1261
4281.815
4390.615
4512.0514
4646.0119
4792.2368
4951.1272
5123.0111
5307.5073
5504.3155
5713.1056
5932.4524
6161.3448
6399.1728
6645.8482
6900.119
7162.7987
7432.5573
7708.9054
7989.4199
8272.0376
8555.6012
8838.4065
3932.5917
3947.022
3978.6314
4026.3628
4089.7193
4168.183
4261.3784
4368.5585
4488.2305
4619.9717
4763.2308
4918.9254
5087.5014
5268.6368
5462.116
5666.7959
5881.4443
6105.7097
6339.088
6581.3056
6830.4848
7087.7904
7352.0715
7622.9064
7897.5732
8174.6927
8453.0622
8730.4272
3918.7085
3932.8833
3963.9392
4010.8507
4073.1475
4150.3442
4242.0766
4347.4827
4465.0078
4594.1787
4734.7021
4887.53
5053.1515
5231.3367
5421.178
5621.4423
5831.7127
6051.6449
6280.8761
6518.3304
6762.5743
7014.6782
7273.6248
7538.5997
7807.522
8079.1982
8352.1898
8624.1302
3905.6922
3919.6244
3950.1493
3996.2584
4057.4832
4133.3288
4223.4257
4326.8084
4442.0653
4568.856
4706.8258
4857.1637
5020.2313
5195.2224
5381.054
5577.2851
5783.5471
5999.5737
6224.5969
6457.0388
6696.4403
6943.4657
7196.8656
7455.9352
7719.2478
7985.6182
8253.0071
8519.5946
3893.5096
3907.1806
3937.1325
3982.3705
4042.4259
4116.8029
4205.1478
4306.5358
4419.7208
4544.3513
4680.0525
4828.2721
4988.5211
5159.9002
5341.9655
5534.4101
5736.9036
5948.9245
6169.2567
6396.7218
6631.2893
6873.0756
7120.802
7374.2494
7632.1626
7893.2128
8155.0267
8416.3922
3881.8635
3895.2573
3924.6057
3968.9405
4027.8143
4100.7648
4187.4514
4287.0083
4398.3499
4521.0948
4654.8395
4800.4938
4957.396
5125.2301
5303.6817
5492.4728
5691.2002
5898.7131
6114.2077
6336.8491
6566.6622
6802.8187