/*--------------------------------*- C++ -*----------------------------------*\
  =========                 |
  \\      /  F ield         | OpenFOAM: The Open Source CFD Toolbox
   \\    /   O peration     | Website:  https://openfoam.org
    \\  /    A nd           | Version:  7
     \\/     M anipulation  |
\*---------------------------------------------------------------------------*/
FoamFile
{
    version     2.0;
    format      ascii;
    class       volScalarField;
    location    "50000";
    object      nut;
}
// * * * * * * * * * * * * * * * * * * * * * * * * * * * * * * * * * * * * * //

dimensions      [0 2 -1 0 0 0 0];

internalField   nonuniform List<scalar> 
113400
(
0.0015193758
0.0014975078
0.0014494028
0.0013653834
0.0012566646
0.0011441911
0.0010228668
0.00090296298
0.00079259666
0.0006950398
0.00059892652
0.00048755634
0.00035871905
0.0003079356
0.00041417821
0.00051206974
0.00061688393
0.00073188288
0.00086253437
0.0010138092
0.0011916152
0.001402901
0.0016572019
0.0019625362
0.0023291097
0.0027878228
0.0033912114
0.004468841
0.0014389437
0.0014124791
0.0013561868
0.0012736948
0.0011750946
0.0010683969
0.00095784931
0.00084962041
0.00074723831
0.00065234056
0.00056030277
0.00045284495
0.00038930612
0.00039953297
0.00043975695
0.00052893162
0.00063531692
0.00075847562
0.00089988682
0.0010628788
0.0012502499
0.0014633535
0.0016995061
0.0019515641
0.0022229233
0.0025220083
0.0028613017
0.0032599062
0.0013493765
0.0013248224
0.0012736698
0.0012017939
0.0011153298
0.0010197677
0.00091923941
0.00081867182
0.00072262312
0.00062868104
0.00053304672
0.00046099218
0.00042411474
0.000418457
0.00045145622
0.00052751208
0.00062806785
0.00074933634
0.00089095327
0.0010533329
0.0012362781
0.0014390176
0.0016578174
0.0018876232
0.0021245053
0.0023642512
0.0026006358
0.0028222976
0.0012629699
0.0012415333
0.0011972815
0.001135772
0.0010617577
0.00097863916
0.00088971144
0.00079756235
0.00070494759
0.00061119386
0.00052584671
0.00047463527
0.00044122786
0.00043772751
0.00047166724
0.00054257847
0.00064281851
0.00076521703
0.00090895419
0.001072905
0.0012541321
0.0014481897
0.0016500853
0.0018539117
0.0020535408
0.0022420069
0.0024119568
0.0025562904
0.0011856222
0.0011673676
0.001129716
0.0010770766
0.001013762
0.00094164698
0.00086293006
0.0007779951
0.00068836736
0.00059636193
0.00053237592
0.00048134806
0.00045306769
0.0004534684
0.00048766615
0.00055590632
0.00065460545
0.00077639728
0.00091712318
0.0010737747
0.0012420808
0.0014175075
0.0015947753
0.0017679957
0.0019315545
0.002080296
0.0022097255
0.0023163582
0.001118941
0.001103733
0.0010724341
0.001028208
0.00097322905
0.00090982173
0.00083778495
0.00075796695
0.00067095425
0.00059163576
0.00053601637
0.00049073164
0.00046745524
0.00047181144
0.00050718654
0.00057572365
0.00067380984
0.00079368137
0.00093034228
0.0010791109
0.0012349877
0.0013932465
0.0015490339
0.0016975197
0.0018343992
0.001956136
0.0020600367
0.0021442812
0.0010640581
0.001051427
0.0010247747
0.00098704439
0.00093862877
0.00088077606
0.00081325724
0.00073631737
0.00065360331
0.00059034606
0.00053443997
0.00049700832
0.00048124415
0.00049027889
0.00052805272
0.00059814987
0.00069449547
0.00081056831
0.00094090839
0.001079865
0.0012224207
0.0013639891
0.0015005811
0.0016287074
0.001745246
0.001847777
0.00193459
0.0020046103
0.0010191113
0.0010084376
0.00098535776
0.00095109856
0.00090726271
0.00085297447
0.00078824754
0.0007140358
0.00064229513
0.00058716034
0.00053861551
0.00050631314
0.00049694385
0.00051113528
0.00055275719
0.00062407693
0.00071835216
0.00082982442
0.00095301128
0.0010820886
0.0012121346
0.001339234
0.0014601447
0.0015721846
0.00167327
0.0017616925
0.0018362418
0.0018961904
0.00098158733
0.00097200328
0.00095114641
0.00091992657
0.00087847266
0.00082657458
0.00076404117
0.00069435313
0.0006360095
0.00058279525
0.00054399463
0.00051951233
0.00051536808
0.0005346125
0.00057999972
0.00065181203
0.00074362251
0.00084974802
0.00096506839
0.0010841856
0.001202702
0.0013171624
0.0014249659
0.0015240652
0.0016128789
0.0016902748
0.001755411
0.0018077356
0.00094974095
0.00094082926
0.00092107782
0.00089124433
0.00085120406
0.00080044118
0.0007401794
0.00067859969
0.00062642723
0.00057979072
0.00054778936
0.00053193574
0.00053394291
0.00055795629
0.00060655563
0.00067805864
0.00076663442
0.00086688761
0.00097429239
0.0010840667
0.0011923735
0.0012961769
0.0013932828
0.0014821045
0.0015614045
0.0016302796
0.001688145
0.0017346294
0.00092213686
0.00091360969
0.00089463639
0.0008654338
0.00082593535
0.00077635597
0.00071995874
0.00066769795
0.00061950636
0.00058089685
0.00055410695
0.00054481266
0.00055309065
0.00058186233
0.00063285644
0.00070345984
0.00078838518
0.00088277135
0.00098258988
0.0010837394
0.0011829301
0.0012775904
0.0013657726
0.0014461347
0.0015177299
0.001579822
0.0016319186
0.0016737252
0.00089751346
0.00088913435
0.0008704383
0.00084168299
0.0008027958
0.00075516098
0.000703612
0.00065833574
0.00061647471
0.00058521925
0.00056505635
0.00056050831
0.00057369872
0.00060636321
0.00065881988
0.00072804018
0.00080919183
0.00089793882
0.00099074234
0.0010841005
0.0011752277
0.0012619517
0.0013425646
0.0014158568
0.0014810316
0.0015375045
0.0015848461
0.001622806
0.00087533682
0.00086703225
0.00084855253
0.00082010861
0.00078227716
0.00073777258
0.00069176186
0.0006490542
0.00061426859
0.00058955927
0.00057653577
0.00057716761
0.00059461219
0.00063015923
0.00068314818
0.0007505536
0.00082783219
0.00091125136
0.0009977209
0.0010842004
0.0011683204
0.0012482158
0.0013223994
0.0013897719
0.0014496035
0.0015013964
0.0015447909
0.0015795473
0.00085513798
0.00084682889
0.00082844162
0.00080046167
0.00076421953
0.00072226436
0.0006817762
0.00064375381
0.00061401358
0.00059432259
0.00058727837
0.00059346001
0.00061522366
0.00065301033
0.00070593644
0.00077124396
0.00084473256
0.00092322541
0.0010040068
0.0010844354
0.0011624569
0.0012364472
0.0013051091
0.001367442
0.0014227584
0.0014706013
0.0015106574
0.0015427152
0.00083627326
0.00082792768
0.00080964111
0.00078236481
0.0007476325
0.00070886438
0.0006728647
0.0006413134
0.00061673401
0.00060131523
0.00059879896
0.00060974396
0.00063520278
0.00067452895
0.00072702368
0.000790115
0.00086009415
0.00093405112
0.0010097077
0.0010848253
0.0011575318
0.0012264058
0.0012903028
0.0013483038
0.0013997651
0.0014442553
0.001481481
0.001511255
0.00081876502
0.00081052517
0.00079272027
0.00076671032
0.00073465673
0.00070025152
0.00066760295
0.00064115359
0.00062182261
0.00061122853
0.00061242578
0.00062682628
0.00065475665
0.00069513807
0.00074694666
0.00080789126
0.00087463754
0.00094446033
0.0010155178
0.001085918
0.0011539457
0.0012183322
0.0012780487
0.0013322591
0.0013803574
0.0014219371
0.0014567161
0.0014845147
0.0008026092
0.00079464368
0.00077766028
0.00075335435
0.00072405422
0.00069356937
0.00066485951
0.00064274477
0.00062805123
0.0006222178
0.00062703364
0.00064434813
0.00067391922
0.00071477596
0.00076573144
0.00082462753
0.00088842223
0.00095452735
0.001021472
0.0010876751
0.0011515559
0.001211971
0.0012679928
0.0013188582
0.0013639935
0.0014030138
0.0014356463
0.0014617137
0.00078731046
0.00077969979
0.00076363652
0.00074098679
0.00071405137
0.00068679312
0.00066288234
0.00064509277
0.00063467369
0.00063320449
0.00064154078
0.0006614338
0.0006921133
0.00073310953
0.00078306248
0.00083988829
0.00090091461
0.00096371258
0.0010270124
0.0010895141
0.0011497612
0.0012067077
0.001259505
0.0013074457
0.0013499929
0.0013867805
0.0014175453
0.0014421087
0.00077269486
0.00076552784
0.00075053494
0.00072969821
0.00070533603
0.00068155792
0.0006617299
0.00064766616
0.00064081992
0.000643173
0.00065507208
0.00067716598
0.00070890453
0.0007497843
0.00079855913
0.00085336519
0.00091185276
0.00097176716
0.0010318974
0.0010911426
0.0011482277
0.0012021693
0.0012521753
0.0012975846
0.0013378967
0.0013727622
0.0014019263
0.0014252091
0.00075900781
0.00075241855
0.00073875439
0.00072005163
0.00069864234
0.00067848689
0.00066231512
0.00065166151
0.00064791886
0.00065331885
0.00066823365
0.00069223582
0.0007247727
0.00076533023
0.00081292046
0.00086586381
0.00092205804
0.00097944085
0.0010367676
0.001093104
0.0011473739
0.0011986492
0.0012461892
0.0012893685
0.0013277143
0.0013608958
0.0013886635
0.0014108359
0.00074654208
0.00074064734
0.00072851955
0.00071215391
0.00069378912
0.00067707781
0.00066430251
0.00065706059
0.00065654017
0.00066451965
0.00068152559
0.00070689152
0.0007399975
0.00078018413
0.0008266372
0.00087788695
0.00093200908
0.00098711009
0.001041915
0.0010956257
0.0011473531
0.001196224
0.0012415481
0.0012827273
0.0013193133
0.0013509943
0.0013775221
0.0013987172
0.0007354339
0.00073028768
0.00071977246
0.00070576366
0.00069034609
0.00067682566
0.000667252
0.00066318664
0.00066576647
0.00067612342
0.00069466825
0.00072108485
0.0007546124
0.00079440125
0.00083977857
0.00088946576
0.00094168662
0.00099469551
0.0010472
0.0010985363
0.0011479725
0.0011946795
0.0012380117
0.0012773999
0.0013124155
0.0013427599
0.001368192
0.0013885355
0.00072577482
0.00072139141
0.00071249941
0.00070082486
0.00068829689
0.00067783672
0.00067129565
0.00067011373
0.00067547885
0.00068803104
0.00070791558
0.00073514152
0.00076890367
0.00080822886
0.0008525868
0.00090078025
0.0009511748
0.0010022111
0.0010526497
0.0011018667
0.0011492203
0.0011939653
0.0012354954
0.0012732696
0.0013068735
0.0013360225
0.0013604828
0.0013800791
0.00071770263
0.00071408845
0.00070682861
0.000697491
0.00068783107
0.00068008087
0.00067633352
0.00067778601
0.00068556541
0.00069997947
0.00072107784
0.00074896064
0.00078277881
0.00082159779
0.00086493837
0.00091167861
0.00096037163
0.0010096171
0.0010582387
0.0011055653
0.0011510181
0.0011939738
0.0012338648
0.0012701762
0.0013025103
0.0013305912
0.0013541879
0.0013731292
0.00071126429
0.00070839818
0.00070271322
0.00069559194
0.00068861483
0.00068339222
0.00068226254
0.00068613778
0.00069603602
0.00071191749
0.0007340486
0.00076245304
0.00079622261
0.00083448519
0.00087679543
0.00092217321
0.00096932579
0.0010169573
0.0010639416
0.0011095516
0.0011532722
0.0011945968
0.0012329972
0.0012679843
0.0012991758
0.0013263016
0.0013491345
0.0013675066
0.00070630552
0.00070411665
0.00069984428
0.00069468737
0.00069008145
0.00068748589
0.00068885726
0.00069495366
0.00070662308
0.00072377478
0.00074680177
0.00077564928
0.0008092958
0.00084694463
0.00088823501
0.00093232305
0.00097804449
0.0010241757
0.0010696309
0.0011136596
0.0011558153
0.0011956764
0.0012327418
0.0012665454
0.0012967201
0.0013230034
0.0013451695
0.0013630537
0.00070267943
0.00070110166
0.00069811384
0.00069478203
0.00069242964
0.00069234488
0.00069602472
0.00070413247
0.00071716615
0.00073546939
0.00075928967
0.00078844688
0.00082188929
0.00085893288
0.00089924761
0.00094211599
0.00098650044
0.0010312363
0.0010752776
0.0011179194
0.0011587039
0.0011972287
0.001233083
0.0012658196
0.0012950839
0.0013206186
0.0013422007
0.001359671
0.00070031927
0.00069931294
0.00069753847
0.00069595286
0.00069574331
0.00069790851
0.00070365544
0.00071342944
0.00072767671
0.00074695838
0.00077141497
0.00080073761
0.00083397619
0.00087047825
0.00090989649
0.00095164327
0.00099479888
0.0010382604
0.0010810359
0.0011224421
0.0011619696
0.0011992625
0.0012340019
0.0012657619
0.0012941997
0.0013190635
0.0013401355
0.001357258
0.00069921977
0.00069875709
0.00069813803
0.00069820798
0.00069998271
0.00070414686
0.00071170217
0.00072280484
0.00073819362
0.00075832747
0.00078332918
0.00081275868
0.00084578709
0.00088177642
0.00092034482
0.00096104802
0.0010030334
0.0010452911
0.0010868867
0.0011271244
0.0011654837
0.0012016546
0.0012353871
0.0012662699
0.0012939718
0.0013182477
0.0013388837
0.0013557244
0.00069940867
0.00069946432
0.00069994339
0.00070157386
0.00070518491
0.0007111749
0.00072026313
0.00073260673
0.0007489498
0.00076978823
0.00079520846
0.00082465392
0.00085743313
0.00089287108
0.00093061068
0.00097034264
0.0010112154
0.0010523289
0.0010928023
0.0011319375
0.0011692517
0.001204432
0.0012372444
0.0012673333
0.001294377
0.0013181353
0.0013383978
0.0013550112
0.00070086931
0.00070140644
0.00070289777
0.00070594502
0.00071118661
0.00071877844
0.00072916925
0.00074266863
0.00075983616
0.00078123936
0.00080689957
0.00083627865
0.0008687825
0.00090365968
0.00094061214
0.00097940754
0.0010192267
0.0010592755
0.0010987196
0.0011368708
0.0011732739
0.0012075646
0.0012395313
0.0012688945
0.0012953432
0.0013186424
0.0013385844
0.0013550177
0.00070355808
0.00070453186
0.00070693577
0.00071124652
0.00071792229
0.00072688293
0.00073847048
0.00075297496
0.0007708612
0.0007927254
0.0008184753
0.00084770328
0.00087989183
0.00091419709
0.00095035648
0.00098823304
0.0010270668
0.0010661359
0.0011046454
0.0011419026
0.0011774692
0.0012109445
0.0012421487
0.0012708649
0.0012967894
0.0013196933
0.0013393723
0.001355678
0.00070741919
0.00070878197
0.00071199548
0.00071741918
0.00072534913
0.00073551014
0.00074816018
0.00076353255
0.00078203956
0.00080422648
0.0008299558
0.00085896379
0.00089078603
0.00092446811
0.0009598463
0.00099686222
0.0010347849
0.0010729523
0.0011105864
0.0011470047
0.0011817861
0.0012145389
0.0012450837
0.0012732268
0.0012986948
0.0013212642
0.0013407349
0.0013569611
0.0007123786
0.00071408309
0.0007180059
0.00072440037
0.00073342389
0.00074464631
0.00075820553
0.00077430266
0.0007933059
0.00081562993
0.00084126718
0.00087001902
0.00090140394
0.00093450429
0.00096918781
0.001005372
0.0010424257
0.0010797153
0.0011165145
0.0011521742
0.0011862573
0.0012183979
0.0012483699
0.0012759952
0.0013010574
0.0013233398
0.001342646
0.0013588327
0.00071836922
0.00072037406
0.00072491776
0.00073215894
0.0007421367
0.0007542746
0.0007685994
0.00078529429
0.00080465749
0.00082698743
0.00085245981
0.00088092192
0.00091186759
0.00094446481
0.00097848338
0.0010138514
0.0010500479
0.0010864813
0.0011224991
0.0011574672
0.0011909213
0.0012225097
0.0012519599
0.0012791233
0.0013038319
0.0013258749
0.0013450597
0.0013612457
0.00072534423
0.00072760939
0.00073268987
0.00074065946
0.00075145518
0.0007643703
0.00077932572
0.00079650779
0.00081605153
0.00083832632
0.00086361768
0.0008917974
0.00092231
0.00095439587
0.00098778007
0.0010223528
0.0010577168
0.0010933288
0.0011285959
0.0011629033
0.0011957582
0.0012268215
0.0012558095
0.0012825831
0.0013069926
0.0013288459
0.0013479537
0.0013641782
0.00073325012
0.00073573503
0.00074126905
0.00074985047
0.00076132826
0.00077488209
0.00079034573
0.0008078734
0.00082747815
0.00084968563
0.00087479703
0.00090267604
0.00093272822
0.00096429406
0.0009970295
0.0010308216
0.0010654076
0.0011002533
0.0011348171
0.0011685015
0.0012007982
0.0012313852
0.001259987
0.0012864315
0.0013105749
0.0013322697
0.0013513309
0.0013676228
0.00074201531
0.00074468277
0.0007505912
0.00075967142
0.00077169869
0.00078575398
0.00080161554
0.00081929723
0.00083892455
0.00086103513
0.00088593348
0.00091344954
0.00094301925
0.00097407262
0.0010061797
0.0010392561
0.0010731417
0.0011072874
0.0011411877
0.0011742832
0.0012060718
0.0012362308
0.0012644852
0.001290626
0.0013145325
0.0013360971
0.0013551385
0.0013715229
0.0007515572
0.00075436969
0.00076057217
0.00077003523
0.00078247289
0.00079690173
0.00081299414
0.00083072782
0.00085036389
0.00087235819
0.00089702546
0.00092414472
0.00095323203
0.00098379527
0.0010153171
0.0010477215
0.0010809294
0.0011144004
0.0011476683
0.0011802071
0.0012115231
0.0012412756
0.0012691944
0.0012950664
0.0013187859
0.0013402623
0.0013593216
0.001375831
0.00076177861
0.00076469784
0.00077111261
0.00078084106
0.00079355384
0.00080822128
0.00082441094
0.00084220523
0.00086183341
0.00088370535
0.00090811704
0.00093482356
0.00096343067
0.00099350968
0.0010244399
0.0010561681
0.0010887006
0.0011215249
0.0011541888
0.0011862041
0.0012170856
0.0012464711
0.0012741022
0.0012997788
0.0013233722
0.0013447906
0.0013638952
0.0013805538
0.00077257882
0.00077556964
0.0007821232
0.00079201583
0.00080489376
0.00081968363
0.00083593401
0.0008537501
0.00087332949
0.00089504402
0.00091913151
0.00094540271
0.00097352052
0.0010030666
0.0010333779
0.0010644729
0.0010963796
0.0011286038
0.0011607109
0.0011922552
0.00122276
0.001251843
0.0012792528
0.0013047899
0.0013282888
0.0013496739
0.0013688442
0.0013856709
0.00078386226
0.00078689377
0.00079352255
0.00080349447
0.00081644656
0.00083128812
0.00084757068
0.00086537223
0.00088486805
0.00090638495
0.00093007975
0.00095587539
0.00098347976
0.0010124767
0.0010422616
0.0010728089
0.0011041185
0.0011357808
0.0011673784
0.001198496
0.0012286534
0.0012574545
0.0012846552
0.0013100574
0.0013334803
0.0013548664
0.0013741371
0.001391162
0.00079555389
0.00079860295
0.00080526002
0.00081525157
0.00082822168
0.00084307781
0.00085934807
0.0008770951
0.00089647697
0.0009177205
0.00094100143
0.00096634804
0.00099349116
0.0010220104
0.0010513407
0.0010813634
0.001112085
0.0011431908
0.0011742861
0.0012049585
0.001234756
0.0012632883
0.0012902951
0.0013155828
0.0013389797
0.0013604157
0.0013798101
0.0013970542
0.00080761151
0.00081066278
0.00081731745
0.00082729108
0.00084024256
0.0008550752
0.0008712954
0.0008889553
0.00090818768
0.00092909844
0.00095199191
0.00097693499
0.0010036569
0.0010317175
0.0010605916
0.0010900957
0.0011202281
0.0011507773
0.0011813619
0.0012115822
0.0012410388
0.0012693342
0.0012961883
0.0013214084
0.0013448252
0.0013663334
0.001385865
0.0014033394
0.00082001304
0.00082305487
0.00082968497
0.00083961238
0.00085251226
0.00086728872
0.0008834276
0.00090098252
0.00091999217
0.00094055777
0.00096307254
0.00098762091
0.0010139005
0.0010414858
0.001069906
0.0010988971
0.0011284629
0.0011584877
0.0011885922
0.001218393
0.001247534
0.0012756174
0.0013023426
0.0013275139
0.0013509617
0.0013725581
0.0013922459
0.0014099676
0.0008327331
0.00083575483
0.00084233882
0.00085218906
0.00086499679
0.0008796745
0.00089569398
0.00091308402
0.00093180781
0.00095204718
0.0009741914
0.00099834511
0.0010241633
0.0010512723
0.001079254
0.0011077615
0.0011368038
0.0011663502
0.0011960112
0.0012254232
0.0012542695
0.0012821518
0.0013087535
0.0013338778
0.0013573588
0.0013790591
0.00139893
0.0014169212
0.00084575319
0.00084874578
0.0008552643
0.00086500988
0.00087769045
0.00089223161
0.00090810143
0.00092524513
0.0009436896
0.00096361422
0.00098540246
0.0010091627
0.00103452
0.0010611621
0.0010887192
0.0011167599
0.001145299
0.0011743789
0.0012036149
0.0012326714
0.0012612422
0.0012889308
0.001315419
0.0013405091
0.0013640407
0.0013858797
0.0014059608
0.0014242292
0.00085904431
0.00086199796
0.0008684296
0.0008780386
0.00089054825
0.00090491221
0.00092055516
0.00093741976
0.00095560661
0.00097522683
0.00099666323
0.0010200035
0.001044895
0.0010710748
0.0010981863
0.0011257392
0.0011538026
0.0011824533
0.001211313
0.0012400611
0.0012683774
0.0012958951
0.001322307
0.0013473991
0.0013710157
0.0013930204
0.0014133221
0.0014318733
0.00087255523
0.00087545745
0.00088177527
0.00089120835
0.0009034981
0.00091762756
0.00093300102
0.00094962403
0.00096756613
0.0009868907
0.0010079744
0.0010308636
0.0010552732
0.0010809836
0.0011076367
0.0011347707
0.0011624328
0.0011906751
0.0012191794
0.0012476326
0.0012757103
0.00130309
0.0013294555
0.0013545737
0.0013782907
0.0014004683
0.0014210009
0.0014398447
0.00088625856
0.00088910118
0.00089528883
0.00090452503
0.00091657034
0.00093042076
0.00094553254
0.00096191059
0.00097960168
0.00099862873
0.001019327
0.0010417612
0.0010657236
0.0010910139
0.001117267
0.0011440495
0.0011713263
0.0011991607
0.0012273063
0.0012554641
0.0012833183
0.0013105747
0.0013369036
0.0013620551
0.0013858743
0.0014082241
0.0014289916
0.0014481401
0.0009001402
0.00090291848
0.00090896682
0.00091799487
0.0009297754
0.00094333541
0.00095818778
0.00097431867
0.0009917561
0.0010104833
0.0010307735
0.0010527912
0.001076355
0.0011012643
0.0011271397
0.0011535768
0.0011804885
0.001207923
0.0012357114
0.0012635763
0.0012912117
0.0013183437
0.0013446374
0.001369828
0.0013937562
0.001416287
0.0014373127
0.0014567849
0.00091415339
0.00091686054
0.00092275564
0.00093155832
0.00094305627
0.00095635392
0.00097096808
0.00098686655
0.0010040668
0.0010224701
0.0010423628
0.0010639933
0.0010871772
0.0011116985
0.0011371963
0.0011633022
0.0011898543
0.0012169019
0.0012443603
0.0012719537
0.001299385
0.0013264016
0.001352665
0.0013779002
0.0014019492
0.001424678
0.001445977
0.0014657741
0.00092825129
0.00093088374
0.00093661972
0.00094519411
0.00095641357
0.00096946389
0.00098385001
0.00099952282
0.0010164752
0.0010345291
0.0010540562
0.0010753234
0.0010981458
0.0011222791
0.0011474079
0.001173189
0.0011993939
0.0012260868
0.0012532484
0.0012805959
0.0013078402
0.0013347372
0.0013609656
0.0013862556
0.0014104338
0.0014333652
0.0014549361
0.0014750594
0.00094242643
0.0009449874
0.0009505727
0.00095893401
0.00096989528
0.00098270907
0.00099687673
0.001012338
0.001029003
0.0010467145
0.0010658935
0.0010868187
0.0011092906
0.001133046
0.0011578151
0.0011832857
0.0012091662
0.0012355239
0.0012624026
0.0012895064
0.0013165603
0.0013433329
0.0013695308
0.0013948809
0.00141919
0.001442322
0.0014641609
0.0014846079
0.00095668443
0.00095917906
0.00096462384
0.000972784
0.00098349543
0.000996068
0.0010100107
0.0010252084
0.0010415594
0.0010589568
0.0010778133
0.001098418
0.0011205384
0.0011439304
0.0011683616
0.0011935332
0.0012190965
0.0012451322
0.0012717268
0.0012985907
0.0013254735
0.0013521398
0.0013783165
0.0014037315
0.0014281741
0.0014515083
0.0014736165
0.0014943969
0.00097101154
0.00097344131
0.00097874697
0.00098670321
0.00099715298
0.0010094601
0.0010231335
0.0010380271
0.0010541024
0.0010712166
0.0010897861
0.0011100877
0.0011318516
0.0011548776
0.0011789631
0.001203811
0.0012290487
0.0012547912
0.0012811361
0.0013078032
0.0013345557
0.0013611457
0.0013873209
0.0014128157
0.0014374046
0.0014609536
0.0014833433
0.0015044715
0.00098538483
0.00098774839
0.00099291107
0.0010006559
0.001010833
0.0010228578
0.0010362439
0.0010508693
0.0010666961
0.001083564
0.0011018614
0.0011218322
0.0011432311
0.0011659012
0.0011896559
0.0012141931
0.0012391702
0.0012646778
0.0012907926
0.0013172823
0.0013439171
0.0013704435
0.001396636
0.0014222244
0.0014469695
0.0014707399
0.0014934133
0.001514886
0.00099978619
0.0010020825
0.0010070998
0.0010146305
0.0010245339
0.0010362794
0.0010494076
0.0010638093
0.0010794203
0.0010960684
0.0011140943
0.0011337224
0.0011547816
0.0011771375
0.0012006082
0.0012248858
0.0012496526
0.0012749384
0.0013008209
0.0013271261
0.001353638
0.0013801079
0.0014063276
0.0014320088
0.0014569056
0.001480889
0.0015038342
0.0015256366
0.0010142102
0.00101644
0.0010213142
0.0010286358
0.0010382786
0.0010497683
0.0010626728
0.0010768755
0.0010922894
0.001108734
0.0011264875
0.0011457921
0.0011665414
0.0011886111
0.0012118091
0.0012358402
0.0012604096
0.0012854828
0.0013111413
0.0013372792
0.0013636784
0.0013900965
0.0014163267
0.0014420862
0.0014671367
0.0014913286
0.0015145364
0.0015366567
0.0010286493
0.0010308159
0.0010355548
0.0010426827
0.001052089
0.0010633479
0.0010760462
0.001090062
0.0011052905
0.0011215293
0.0011390104
0.0011580291
0.0011785014
0.00120031
0.0012232396
0.0012470256
0.001271398
0.0012962657
0.0013217207
0.001347708
0.0013740012
0.0014003628
0.0014265941
0.0014524337
0.001477639
0.0015020375
0.0015255068
0.0015479395
0.001043112
0.0010452221
0.0010498417
0.0010567999
0.0010659978
0.001077051
0.0010895635
0.0011034099
0.0011184688
0.0011344849
0.0011517115
0.0011704687
0.0011906888
0.0012122424
0.0012349124
0.0012584732
0.0012826681
0.0013073485
0.0013326131
0.0013584595
0.0013846478
0.0014109515
0.0014371821
0.0014630947
0.001488445
0.0015130454
0.0015367724
0.0015595134
0.0010576393
0.0010597014
0.0010642187
0.0010710299
0.0010800448
0.0010909147
0.0011032586
0.0011169514
0.0011318106
0.0011475946
0.0011645919
0.0011831096
0.0012030963
0.0012243976
0.0012468263
0.0012701831
0.001294207
0.0013187059
0.0013437941
0.0013694961
0.0013955764
0.0014218302
0.0014480636
0.0014740462
0.0014995357
0.0015243314
0.001548308
0.0015713494
0.0010722709
0.0010742905
0.0010787165
0.0010853942
0.0010942392
0.0011049323
0.0011171095
0.0011306196
0.0011452576
0.001160844
0.0011776391
0.0011959441
0.001215708
0.0012367631
0.0012589597
0.001282118
0.0013059687
0.0013302932
0.0013552168
0.0013807847
0.0014067745
0.001432995
0.0014592397
0.0014852937
0.0015109188
0.0015359014
0.001560116
0.001583443
0.0010870304
0.0010890095
0.001093348
0.0010998954
0.0011085709
0.0011190818
0.0011310737
0.0011443807
0.0011588325
0.0011742478
0.0011908648
0.0012089804
0.0012285223
0.0012493475
0.0012713353
0.0012943165
0.0013180037
0.0013421617
0.0013669347
0.0013923825
0.0014182902
0.0014444773
0.0014707302
0.0014968551
0.0015226082
0.0015477645
0.0015721999
0.0015957923
0.0011019165
0.0011038541
0.0011081023
0.0011145145
0.0011230133
0.0011333306
0.001145126
0.0011582537
0.0011725504
0.0011878192
0.0012042822
0.0012222176
0.0012415451
0.0012621623
0.0012839608
0.0013067627
0.0013302847
0.0013542899
0.0013789213
0.0014042526
0.0014300831
0.0014562347
0.0014824973
0.0015086918
0.0015345625
0.0015598809
0.0015845223
0.0016083637
0.0011169082
0.0011188022
0.0011229556
0.0011292275
0.0011375454
0.0011476692
0.0011592862
0.0011722661
0.0011864313
0.001201572
0.0012178978
0.0012356416
0.0012547573
0.0012751697
0.0012967768
0.0013193849
0.0013427403
0.0013666028
0.0013911029
0.0014163296
0.0014421008
0.0014682289
0.0014945077
0.0015207621
0.0015467418
0.0015722246
0.0015970717
0.00162116
0.0011319908
0.0011338406
0.0011378996
0.0011440343
0.0011521808
0.0011621282
0.0011735897
0.0011864385
0.0012004841
0.0012155073
0.001231677
0.0012492203
0.0012681404
0.0012883654
0.0013097923
0.0013322178
0.0013554206
0.0013791766
0.001403569
0.0014286931
0.0014544079
0.0014805107
0.0015067987
0.0015331032
0.0015591898
0.0015848393
0.0016098902
0.0016342205
0.0011471628
0.0011489714
0.001152943
0.0011589523
0.0011669444
0.001176733
0.0011880515
0.0012007771
0.0012147075
0.0012296028
0.0012456027
0.0012629734
0.0012817274
0.0013017957
0.00132306
0.0013453322
0.0013684184
0.0013920925
0.0014163797
0.001441398
0.0014670428
0.0014931053
0.0015193954
0.0015457441
0.0015719303
0.0015977328
0.0016229742
0.0016475372
0.0011624428
0.0011642158
0.0011681114
0.0011740113
0.0011818679
0.0011915158
0.0012027069
0.0012153232
0.0012291471
0.0012439016
0.0012597468
0.0012769648
0.0012955743
0.0013155
0.0013366069
0.0013587356
0.0013817091
0.0014052898
0.0014294723
0.0014543906
0.0014799599
0.0015059786
0.0015322717
0.0015586606
0.0015849358
0.0016108773
0.0016362967
0.0016610743
0.0011778708
0.0011796138
0.0011834451
0.001189252
0.0011969918
0.0012065169
0.0012175954
0.0012301141
0.0012438046
0.0012584092
0.0012741173
0.0012911986
0.0013096786
0.0013294587
0.0013504123
0.0013724074
0.0013952741
0.0014187603
0.0014428431
0.0014676696
0.0014931695
0.0015191489
0.0015454451
0.0015718663
0.0015982182
0.0016242831
0.0016498613
0.0016748333
0.0011934863
0.0011952034
0.0011989789
0.0012047034
0.0012123367
0.0012217447
0.0012327112
0.0012450982
0.0012586372
0.001273117
0.0012887064
0.0013056683
0.0013240256
0.0013436605
0.0013644766
0.0013863537
0.0014091177
0.0014325142
0.0014565108
0.0014812553
0.0015066877
0.0015326252
0.0015589096
0.0015853492
0.0016117723
0.0016379515
0.0016636767
0.0016888305
0.0012092995
0.001210991
0.0012147103
0.0012203499
0.0012278699
0.0012371484
0.0012479758
0.0012602187
0.0012736446
0.0012880273
0.0013035222
0.0013203861
0.0013386175
0.0013581127
0.0013788009
0.0014005672
0.0014232261
0.0014465372
0.0014704555
0.0014951133
0.0015204742
0.001546374
0.0015726483
0.0015991109
0.0016256036
0.0016518864
0.0016777465
0.0017030666
0.0012252893
0.0012269524
0.0012306093
0.0012361541
0.0012435491
0.0012526857
0.0012633742
0.001275508
0.0012888462
0.0013031519
0.0013185704
0.0013353342
0.0013534371
0.0013728101
0.001393386
0.0014150484
0.0014376039
0.0014608331
0.0014846763
0.0015092497
0.0015345459
0.0015604152
0.0015866809
0.0016131596
0.0016396962
0.0016660591
0.0016920443
0.0017175163
0.001241438
0.0012430702
0.0012466603
0.001252107
0.0012593783
0.0012683835
0.0012789571
0.0012910004
0.0013042655
0.0013185057
0.0013338539
0.001350511
0.0013685005
0.0013877661
0.0014082433
0.0014298013
0.0014522587
0.0014754181
0.0014991921
0.0015236823
0.0015489118
0.0015747379
0.0016009759
0.0016274522
0.0016540131
0.0016804437
0.0017065409
0.0017321488
0.0012577376
0.001259341
0.0012628696
0.0012682287
0.0012753936
0.0012842888
0.0012947666
0.0013067358
0.0013199409
0.0013341274
0.0013493896
0.0013659368
0.0013838229
0.0014029902
0.0014233705
0.0014448194
0.0014671806
0.0014902707
0.0015139652
0.001538364
0.0015635244
0.0015892955
0.0016154966
0.0016419686
0.0016685503
0.0016950391
0.0017212326
0.0017469626
0.0012742047
0.0012757848
0.001279264
0.0012845526
0.0012916304
0.0013004338
0.0013108305
0.0013227358
0.0013358863
0.0013499933
0.0013651519
0.0013816033
0.0013993974
0.0014184768
0.0014387536
0.0014600922
0.0014823617
0.0015053842
0.0015289946
0.0015533
0.0015783908
0.0016041057
0.0016302702
0.0016567373
0.0016833329
0.0017098684
0.0017361458
0.0017619881
0.0012908859
0.0012924476
0.0012958873
0.0013011182
0.0013081229
0.0013168461
0.0013271685
0.0013390116
0.0013520786
0.0013660823
0.0013811524
0.0013975184
0.0014152298
0.0014342206
0.0014543891
0.0014756253
0.0014978109
0.0015207609
0.0015442839
0.0015685016
0.0015935231
0.0016191779
0.001645301
0.0016717471
0.001698341
0.0017249171
0.0017512701
0.0017772124
0.0013078236
0.0013093697
0.0013127755
0.0013179555
0.0013248928
0.0013335381
0.0013437837
0.0013555388
0.0013684997
0.0013824153
0.0013974069
0.0014136954
0.0014313299
0.0014502181
0.0014702709
0.0014914001
0.0015134943
0.0015363565
0.0015597838
0.0015839146
0.0016088613
0.0016344524
0.0016605375
0.0016869637
0.00171356
0.0017401781
0.0017665991
0.0017926279
0.0013250317
0.0013265616
0.0013299315
0.0013350562
0.0013419179
0.0013504721
0.0013606166
0.001372263
0.001385133
0.0013989753
0.0014138991
0.0014301174
0.00144766
0.0014664319
0.0014863739
0.0015074012
0.0015294006
0.0015521714
0.0015755189
0.0015995786
0.00162445
0.0016499807
0.0016760324
0.0017024394
0.0017290324
0.00175567
0.0017821348