/*--------------------------------*- C++ -*----------------------------------*\
  =========                 |
  \\      /  F ield         | OpenFOAM: The Open Source CFD Toolbox
   \\    /   O peration     | Website:  https://openfoam.org
    \\  /    A nd           | Version:  7
     \\/     M anipulation  |
\*---------------------------------------------------------------------------*/
FoamFile
{
    version     2.0;
    format      ascii;
    class       volScalarField;
    location    "50000";
    object      YCH4;
}
// * * * * * * * * * * * * * * * * * * * * * * * * * * * * * * * * * * * * * //

dimensions      [0 0 0 0 0 0 0];

internalField   nonuniform List<scalar> 
113400
(
0.006049085
0.006049085
0.006049085
0.006049085
0.02042601
0.024891349
0.03154007
0.04205305
0.059308248
0.08993755
0.098726677
0.095730958
0.082697521
0.016836182
0.1503614
0.14885575
0.14682616
0.14371447
0.14091936
0.13701545
0.1325433
0.12653575
0.1197125
0.11547923
0.10984447
0.10752723
0.1073878
0.10050978
0.0093331371
0.012216792
0.016913019
0.022215388
0.030943497
0.042790386
0.057992759
0.077872185
0.078421755
0.080664636
0.080982216
0.055847321
0.048068505
0.12340763
0.14751554
0.14535328
0.14271963
0.13891651
0.13498801
0.1302626
0.12429297
0.11731326
0.10916799
0.10130933
0.093578841
0.085765316
0.077573542
0.069310288
0.0095935264
0.01455581
0.022945695
0.033433597
0.046231269
0.062559334
0.073230178
0.072540781
0.072041544
0.067554893
0.059074841
0.022102662
0.094441945
0.14642326
0.14571433
0.14377171
0.14015981
0.13679978
0.13192072
0.126725
0.12037186
0.11326877
0.10563647
0.097660305
0.089818361
0.082090662
0.074494218
0.067210676
0.010086229
0.016940847
0.028451759
0.043260188
0.059107483
0.067663386
0.069441861
0.067374122
0.065072529
0.060899409
0.032366437
0.067499941
0.13450469
0.14643867
0.14407609
0.14182669
0.13751139
0.13380486
0.12874252
0.12334223
0.11689731
0.10987931
0.10286119
0.095578781
0.088234575
0.081072832
0.074154426
0.067540432
0.010367513
0.018600414
0.031962389
0.047018451
0.05593135
0.062641589
0.061499041
0.060905192
0.058070306
0.042998491
0.037551251
0.095263883
0.1459484
0.14521852
0.1429646
0.13987762
0.13578673
0.13149424
0.12629313
0.12088779
0.11490126
0.10818716
0.10141399
0.094703373
0.088050304
0.081505694
0.075113531
0.068918428
0.01012638
0.018528712
0.031827259
0.039013423
0.050147848
0.051563166
0.055652806
0.053920364
0.048416682
0.022956852
0.062569094
0.12176145
0.14604121
0.14413387
0.14221476
0.13801896
0.13421689
0.12943015
0.12417638
0.11885789
0.11310777
0.1068986
0.10044316
0.094001836
0.087625532
0.081374041
0.075249682
0.069285523
0.0093432608
0.015556841
0.025059224
0.035216424
0.040833868
0.047600948
0.048284114
0.044972182
0.035794859
0.034130446
0.07810474
0.14510875
0.14524585
0.1430352
0.14087285
0.13630214
0.13273077
0.12771372
0.12247241
0.11715231
0.11162165
0.10597213
0.099882086
0.093716397
0.087598798
0.081554984
0.075613495
0.06979864
0.0083817957
0.013254233
0.017293922
0.028817985
0.036834053
0.039848157
0.04032317
0.040040439
0.020448725
0.054466263
0.095884329
0.14444535
0.14411672
0.14202445
0.13934364
0.13477834
0.13126837
0.12616704
0.12098587
0.11567993
0.11039192
0.10482041
0.099292436
0.093455024
0.087545639
0.081690449
0.075915721
0.070240533
0.006746879
0.0085662087
0.015769617
0.023398409
0.030042566
0.033882814
0.034659283
0.025928379
0.028415648
0.070448358
0.12062268
0.14437494
0.14307173
0.14111113
0.13782392
0.13339357
0.12978871
0.12473211
0.11963918
0.11438569
0.10917432
0.10384918
0.098401336
0.092997228
0.087448942
0.081754641
0.076118407
0.070565746
0.0064142766
0.0072594584
0.009967746
0.0193715
0.025306071
0.027118241
0.02790734
0.018066582
0.042188101
0.077458741
0.14151916
0.14395732
0.14201126
0.14040079
0.13641224
0.13210705
0.1285123
0.12351344
0.11848588
0.11332848
0.10815968
0.10304346
0.097726121
0.092394221
0.087101516
0.081820209
0.076303639
0.070854122
0.0058935794
0.0059631352
0.010164629
0.015629357
0.019184929
0.023276113
0.019019336
0.019887316
0.055549629
0.089200797
0.14229129
0.14280878
0.14094132
0.13929006
0.13507255
0.1308762
0.12735562
0.12242548
0.11745841
0.1124118
0.10730174
0.10222231
0.097175255
0.091912887
0.086687556
0.08149955
0.07636059
0.071111969
0.0058022964
0.0061009911
0.00775642
0.011718448
0.01714784
0.015192675
0.014361299
0.030775872
0.066565129
0.11055277
0.14186272
0.14170082
0.13987786
0.13798023
0.13376224
0.12965582
0.12620493
0.12139474
0.11649523
0.11156123
0.10651623
0.10148898
0.096493048
0.091481579
0.086319086
0.081192592
0.076104827
0.071063422
0.0056800521
0.0056769743
0.0067404529
0.010787803
0.010357699
0.013915213
0.0091975319
0.041227836
0.073144415
0.12842842
0.14171032
0.14069577
0.13890403
0.13671262
0.13252181
0.12848428
0.12503984
0.12045608
0.11562831
0.11078076
0.10582604
0.10085528
0.095902827
0.090982412
0.086018594
0.080947772
0.075913774
0.070921275
0.0055743541
0.005587316
0.006556212
0.00694907
0.010082157
0.010364654
0.019388347
0.04890401
0.081633809
0.13983517
0.14134637
0.13975091
0.13801552
0.13551258
0.13136321
0.12737813
0.12393722
0.11960034
0.11484577
0.11006023
0.10521686
0.10030355
0.09539929
0.09051671
0.085665634
0.080758942
0.075775099
0.070831082
0.0054509797
0.0054601138
0.0055475036
0.0067194196
0.0086761346
0.0064092897
0.027070986
0.05715083
0.092504612
0.13891373
0.14026748
0.13872029
0.13711276
0.13439106
0.13029294
0.12634897
0.12291087
0.11882603
0.1141456
0.10942458
0.10468728
0.099831842
0.094977597
0.090138233
0.085320719
0.080533658
0.075696012
0.070796679
0.0053132305
0.0053255944
0.0054336718
0.0063223306
0.0066793512
0.0061924797
0.034548743
0.064439617
0.10522114
0.13827107
0.13919347
0.13766376
0.1361766
0.13328989
0.12924839
0.12533334
0.12190366
0.11808283
0.11347915
0.10882786
0.10415139
0.099401659
0.094600431
0.089808845
0.085032575
0.080279682
0.075553876
0.070798121
0.0051634978
0.005194957
0.0052970449
0.0057231059
0.0057383213
0.013228349
0.041068112
0.072664343
0.11765559
0.13786769
0.13817453
0.13662707
0.1352278
0.13221017
0.12822801
0.1243341
0.12091527
0.11735995
0.1128329
0.10825302
0.10363695
0.098994631
0.094249135
0.089509132
0.08477833
0.080066508
0.075375331
0.070709019
0.0049996564
0.0050521119
0.0051375882
0.0052676384
0.0056214292
0.017692711
0.04680642
0.07921317
0.12902564
0.13771374
0.13725571
0.13562543
0.13428672
0.13119974
0.12727059
0.12338408
0.11998198
0.11668851
0.11223522
0.10772562
0.1031713
0.098598409
0.093942149
0.089254221
0.084570654
0.079901647
0.075247674
0.070622651
0.0048240198
0.0048992337
0.0050045312
0.0051988942
0.0055209664
0.020959345
0.050671329
0.083530067
0.13523654
0.13763208
0.13633472
0.13465164
0.13338419
0.13028566
0.12641452
0.12252152
0.11914212
0.11591066
0.11171853
0.10727565
0.1027846
0.098265603
0.093708971
0.089072172
0.084435775
0.07980949
0.075192542
0.070609506
0.0046532066
0.0047675865
0.0048997565
0.0051285195
0.005443563
0.024140596
0.054004022
0.088296296
0.13431157
0.13673207
0.13539029
0.1336968
0.13247771
0.12942453
0.12561717
0.12170951
0.11836195
0.11512245
0.11125823
0.10687939
0.10245206
0.097988623
0.093500505
0.088943705
0.084355094
0.079772561
0.07519458
0.070654334
0.004484342
0.0046288178
0.0047912855
0.0050591178
0.0053837276
0.027048675
0.057341712
0.094612571
0.13351113
0.13568985
0.13442187
0.13273586
0.13156205
0.12858365
0.12484154
0.12091452
0.11760333
0.11436339
0.11082034
0.10650483
0.10214164
0.097735363
0.093299375
0.088839353
0.084300074
0.079762227
0.075230805
0.070730807
0.0043091259
0.0044860139
0.0046803469
0.0049922971
0.0053428242
0.029525564
0.059941736
0.10068734
0.13276853
0.13465171
0.133433
0.1317714
0.13064487
0.12776394
0.12408499
0.12018973
0.11686358
0.11362754
0.11039673
0.10614424
0.10184604
0.097497951
0.093116528
0.088721602
0.084262759
0.079770358
0.075287337
0.070829423
0.0041281899
0.0043399517
0.0045675483
0.0049285578
0.0053300905
0.031904824
0.062351224
0.10602914
0.1320284
0.13361653
0.13241821
0.13080723
0.12971562
0.12695787
0.12333919
0.119511
0.11612359
0.11290457
0.1098094
0.10578639
0.10155173
0.097263718
0.092939262
0.088596791
0.084231663
0.07978582
0.075353036
0.070938816
0.0039420418
0.0041912186
0.0044538445
0.0048863878
0.005322295
0.034298752
0.06482863
0.11084393
0.13124272
0.13256444
0.13140407
0.12984189
0.12876839
0.12616109
0.12260344
0.11884069
0.11538964
0.11219717
0.10909504
0.10543258
0.10125791
0.097031069
0.092763208
0.088475176
0.084166757
0.079803558
0.075421491
0.071052181
0.0037509276
0.0040454381
0.0043677778
0.0048464496
0.0067813854
0.036520885
0.067485037
0.11533537
0.13044266
0.13149781
0.13038099
0.12886645
0.12780071
0.12536927
0.12187308
0.11817718
0.11466385
0.11150307
0.1084028
0.10508364
0.1009668
0.096800172
0.092588167
0.088355064
0.084097282
0.079818704
0.075490332
0.071166616
0.0035952688
0.0039337216
0.0042866651
0.0047985714
0.008439856
0.038465114
0.070403737
0.11919113
0.12954834
0.13042613
0.12936389
0.12789551
0.12682911
0.12458338
0.12114734
0.11751791
0.11394236
0.11081547
0.10772033
0.10473526
0.1006763
0.096570798
0.092415097
0.088237484
0.084031461
0.079800899
0.075561124
0.0712828
0.0034446022
0.0038186602
0.004200894
0.0047444602
0.0096373921
0.040102747
0.073044718
0.12240817
0.12858134
0.12934734
0.12834237
0.12691362
0.12585337
0.12380944
0.1204316
0.11686598
0.1132269
0.11013162
0.10705658
0.10406749
0.10038585
0.096337311
0.09223936
0.088118466
0.083964631
0.079785752
0.075616927
0.071398283
0.0032906005
0.0037005598
0.0041113654
0.0046872601
0.010620041
0.041712302
0.075102121
0.12393634
0.12753535
0.12826342
0.12731328
0.12591632
0.12486651
0.1230497
0.11972831
0.11622406
0.11255904
0.10946221
0.10641338
0.10342058
0.10009794
0.096102795
0.092060251
0.087994987
0.083892879
0.079766151
0.075645191
0.071507941
0.0031335381
0.0035796508
0.0040181445
0.0046263113
0.011409774
0.042941727
0.076607022
0.12323417
0.12642071
0.1271678
0.12627978
0.12491354
0.12387104
0.12229895
0.11903287
0.11558635
0.11198719
0.10879968
0.10578241
0.10278704
0.099807492
0.095864904
0.091878638
0.087867636
0.083817295
0.079742819
0.07567066
0.071589232
0.0029737248
0.0034562623
0.003921872
0.0045625509
0.012204151
0.04391833
0.077563372
0.12187183
0.12530048
0.12605829
0.12523421
0.12390494
0.12286388
0.12154807
0.11833778
0.11494817
0.11141142
0.10813502
0.10514786
0.10216334
0.099273782
0.095618052
0.09168498
0.087729062
0.083731579
0.079710112
0.07568791
0.071652322
0.002811398
0.0033306925
0.0038229519
0.0044972934
0.012788413
0.044435714
0.078122421
0.12050276
0.12416981
0.12493202
0.12416894
0.12288385
0.12184829
0.12079804
0.11764173
0.11431201
0.11083499
0.10747502
0.10451714
0.10155572
0.09866135
0.095367389
0.091483051
0.087580923
0.083635773
0.079666949
0.075694588
0.071705455
0.0026466211
0.0032029247
0.0037211118
0.0044295327
0.013125213
0.044592821
0.078407194
0.11912198
0.12301867
0.12379547
0.1230901
0.12184797
0.12081797
0.12004626
0.11694282
0.11367211
0.1102553
0.10681368
0.10388878
0.10095583
0.098062065
0.095112561
0.091275323
0.087426223
0.083532924
0.07961628
0.075693564
0.071750867
0.0024795008
0.0030730117
0.0036163545
0.0043589385
0.013253934
0.044582925
0.078559499
0.11774493
0.12182878
0.122637
0.1220009
0.12080562
0.11977855
0.11927639
0.11623858
0.11302699
0.10967039
0.10616917
0.1032593
0.10035461
0.097471501
0.094676387
0.091059694
0.087260798
0.083420392
0.079556279
0.075683533
0.071787534
0.002310109
0.0029409613
0.0035118406
0.0043014864
0.013245911
0.044469717
0.078581286
0.11636229
0.12059511
0.12145468
0.12089924
0.11974281
0.11872338
0.11819537
0.11553008
0.11237578
0.10907633
0.10564016
0.1026238
0.0997542
0.096892396
0.094097259
0.090837817
0.087086424
0.083296844
0.079484918
0.075662099
0.071812878
0.0021531623
0.0028283566
0.0034337004
0.0042411228
0.013150035
0.044292003
0.078577631
0.114959
0.11929815
0.12025546
0.11977399
0.11866566
0.11766178
0.11711782
0.11481678
0.11171746
0.10847187
0.10509954
0.10197827
0.099149375
0.096314296
0.093526235
0.09060688
0.086901416
0.08316191
0.079401506
0.075628386
0.071825904
0.002048124
0.0027363097
0.0033530628
0.0041780187
0.01298137
0.044065828
0.078574446
0.11353051
0.11791856
0.11904189
0.11861038
0.11758174
0.11660089
0.11603642
0.11409679
0.11104976
0.10785569
0.1045456
0.10132282
0.0985339
0.095725652
0.092953503
0.090235909
0.08670164
0.083010515
0.07930237
0.075579562
0.071824318
0.0019417595
0.0026428204
0.0032701969
0.0041125971
0.012751654
0.043879777
0.078356596
0.11205892
0.11649004
0.11782219
0.11743757
0.1164903
0.11553736
0.11494791
0.11337021
0.11037319
0.10722987
0.10398003
0.10065884
0.097909611
0.095126439
0.092382457
0.089666502
0.086486444
0.082839306
0.079183343
0.075511152
0.071803601
0.0018341823
0.0025480001
0.0031852679
0.0040449056
0.012461912
0.043709973
0.07792608
0.1105346
0.11502121
0.1165971
0.11624863
0.11538105
0.11446112
0.11385219
0.11263669
0.10968957
0.10659709
0.10340467
0.10007168
0.097281306
0.094527587
0.091813227
0.089104331
0.086256873
0.082651813
0.079046189
0.0754238
0.071763622
0.0017254433
0.0024519265
0.0030984543
0.0039748765
0.012182622
0.043330163
0.076925314
0.10896345
0.11353324
0.11536418
0.1150491
0.11425908
0.11337357
0.11274942
0.11189624
0.10899655
0.10595911
0.10281878
0.099540417
0.096648244
0.093927736
0.091241747
0.088543766
0.085939672
0.082450366
0.07889196
0.075319615
0.071706853
0.0016154688
0.0023544489
0.0030091718
0.003901829
0.01175354
0.04265089
0.075622236
0.10736988
0.11204012
0.11412064
0.11383655
0.11312926
0.11228351
0.11164422
0.11114882
0.1082932
0.10531102
0.10221993
0.099000355
0.096004827
0.093323783
0.090663124
0.087992059
0.08539179
0.082236857
0.078719723
0.075197578
0.071633631
0.00150428
0.0022556243
0.0029176077
0.0038261395
0.011174452
0.041743268
0.074220643
0.10576698
0.11054292
0.1128629
0.11260344
0.11198869
0.11118015
0.11052007
0.11033453
0.10758211
0.10465528
0.1016119
0.098452414
0.095355866
0.092717826
0.090085529
0.087448132
0.08485847
0.082015547
0.078536758
0.075062681
0.07154607
0.0013918589
0.0021554301
0.0028235968
0.003748604
0.010464374
0.040730224
0.072791653
0.10415759
0.10902885
0.11159345
0.11135238
0.1108322
0.11005203
0.10938674
0.10917049
0.10686099
0.10398686
0.10099196
0.097893238
0.094700922
0.092107843
0.089504651
0.086902592
0.084324673
0.081781319
0.078340173
0.074914341
0.071444412
0.0012782698
0.0020538954
0.0027354447
0.0036788319
0.009697461
0.039695185
0.071388721
0.10255649
0.10747814
0.11030647
0.11008559
0.1096712
0.10892001
0.10825746
0.10802558
0.10612987
0.10330528
0.10035701
0.097315026
0.09417
0.091481739
0.088913748
0.086343536
0.083790588
0.081291586
0.078127218
0.074744954
0.071322537
0.0011933319
0.0019772252
0.0026613651
0.0036070677
0.0089134694
0.038662822
0.070038733
0.10094721
0.10590128
0.10900412
0.10880915
0.10850401
0.10778666
0.10713344
0.10688712
0.10538979
0.10261034
0.09970679
0.096718825
0.093624478
0.090837815
0.088308956
0.085774176
0.083252783
0.080772115
0.077898797
0.074557381
0.071180723
0.0011293484
0.001905515
0.0025865095
0.0035343791
0.0081554843
0.0376832
0.068848437
0.099322752
0.10428448
0.10769041
0.10753213
0.10732705
0.10664094
0.10601842
0.10574555
0.10464009
0.10190301
0.099043357
0.09610788
0.093062816
0.090181631
0.087692806
0.085195689
0.082707451
0.080247966
0.077653153
0.074352067
0.071020048
0.0010650682
0.0018333756
0.0025112378
0.0034610968
0.00741946
0.036772797
0.067604111
0.097679857
0.1026285
0.10636709
0.10624681
0.10613994
0.10548109
0.10489169
0.10459349
0.10388045
0.10118458
0.098370345
0.095484662
0.092487447
0.089516699
0.087067294
0.084607898
0.08215152
0.07971698
0.077329599
0.074128552
0.070840369
0.0010005029
0.001760792
0.0024354329
0.0033869117
0.0066954021
0.035901987
0.06626407
0.096011567
0.10095087
0.10503887
0.10495156
0.10494555
0.1043122
0.10376004
0.10343863
0.10311092
0.1004528
0.097690269
0.094848403
0.091898332
0.088881667
0.086431942
0.084010757
0.081582845
0.07918426
0.076810321
0.073887377
0.070639873
0.000935697
0.0016878779
0.0023594014
0.0033122071
0.0060240202
0.0349359
0.064667805
0.094310481
0.099275981
0.10370547
0.1036438
0.10373987
0.10313285
0.10262081
0.10227133
0.10233051
0.099709623
0.097000052
0.094201795
0.091297092
0.088336159
0.085789389
0.083412818
0.081013366
0.078653355
0.076296203
0.073633353
0.070424342
0.00087049219
0.0016144722
0.0022826577
0.0032363161
0.0052724284
0.033784567
0.06294618
0.092596846
0.097599349
0.10236451
0.10232769
0.10252122
0.10193932
0.10145683
0.10110013
0.10116809
0.09895455
0.096294834
0.093540173
0.090687379
0.087776902
0.085139009
0.082809897
0.080440216
0.078120127
0.075780598
0.073366039
0.070195038
0.00080483128
0.0015404784
0.002204854
0.0031586581
0.0044732925
0.032567062
0.061231831
0.090880783
0.095935852
0.10100974
0.10100295
0.10129022
0.10074216
0.1002891
0.099935502
0.099989121
0.098188309
0.095575316
0.09286182
0.090062942
0.087200263
0.084477841
0.082196111
0.07985729
0.07757705
0.07525709
0.073048533
0.069948416
0.00073881261
0.0014660451
0.0021277419
0.0030860076
0.0041284338
0.031338464
0.059587018
0.089165472
0.094269449
0.099645825
0.099666486
0.099982876
0.099539676
0.099120897
0.098775382
0.098821909
0.097411033
0.09484189
0.092167411
0.089421286
0.086604315
0.083806149
0.081565586
0.07926423
0.077016636
0.074732652
0.072539119
0.069685241
0.00068527126
0.001403807
0.0020648438
0.0030130792
0.0040558976
0.030145136
0.058069376
0.087477702
0.092596839
0.098284934
0.098324175
0.098677477
0.09833104
0.09795031
0.097614618
0.097656567
0.096628078
0.094095374
0.091459727
0.088764714
0.085991587
0.083131167
0.080921057
0.078660882
0.076443768
0.074199898
0.072024688
0.069405322
0.00064873958
0.001348716
0.0020012351
0.0029388646
0.0039822424
0.028994412
0.056657854
0.085787377
0.09092404
0.096912527
0.096976891
0.097371087
0.097117386
0.0967729
0.096448116
0.096487402
0.095832705
0.093336011
0.090741041
0.088095011
0.085361809
0.082556474
0.08026256
0.078049665
0.075861763
0.073658717
0.071501954
0.069109105
0.00061207705
0.0012934379
0.0019374003
0.002864637
0.0039088481
0.027902663
0.055369591
0.08409347
0.089259383
0.095532323
0.095630541
0.096060449
0.095904465
0.095589255
0.095299448
0.095318503
0.095026656
0.092563023
0.090009609
0.087409989
0.08471485
0.081963386
0.079587608
0.077424463
0.075266344
0.073105012
0.070966525
0.068795241
0.00057547791
0.0012382469
0.0018740129
0.0027915962
0.0038369894
0.026923189
0.054041821
0.082445878
0.087573235
0.094149272
0.094282872
0.094742163
0.09468867
0.094398788
0.094149899
0.094149476
0.094209908
0.091777253
0.089274007
0.086711436
0.084054632
0.081356734
0.078900393
0.076786822
0.074657547
0.072536854
0.070422039
0.06835984
0.00053893492
0.0011831852
0.0018111256
0.0027195003
0.0037661953
0.025912136
0.052591777
0.080765109
0.085891491
0.092676218
0.092929578
0.093420273
0.093464047
0.093201602
0.092986866
0.092965922
0.093354376
0.090979821
0.088526654
0.086001821
0.083383969
0.080740043
0.078205783
0.07614174
0.074040736
0.071960475
0.069874709
0.067838505
0.00050233832
0.0011281205
0.0017484037
0.0026476927
0.0036944121
0.024830267
0.051063497
0.079070371
0.084242194
0.091023373
0.091567195
0.092092958
0.092225079
0.091995729
0.091808043
0.091787219
0.09215868
0.090170087
0.087763933
0.085276668
0.082708577
0.080110158
0.077503395
0.075488941
0.073415963
0.071377038
0.069320951
0.067312647
0.0004656374
0.0010729221
0.0016854924
0.0025754168
0.0036225707
0.023709301
0.049546274
0.077274588
0.082622444
0.0894024
0.090206136
0.090757542
0.090980144
0.090783936
0.090632706
0.09061873
0.090989656
0.089349644
0.08698746
0.084534957
0.082019554
0.079462853
0.076804373
0.074824776
0.072779104
0.070781361
0.068754047
0.066774086
0.00042887912
0.0010176332
0.0016245709
0.0025098528
0.0035523186
0.022620751
0.048104799
0.075285763
0.081038066
0.087792957
0.088857695
0.089418806
0.089737213
0.089567839
0.089460073
0.089454444
0.089826273
0.0885286
0.086198259
0.083780701
0.081317023
0.078796931
0.076192066
0.074145352
0.07213444
0.070175976
0.068175204
0.066222766
0.00040209918
0.00097492579
0.0015757123
0.0024476122
0.0034832487
0.02159734
0.046749496
0.073436358
0.07945785
0.086187795
0.087500388
0.088079873
0.088492038
0.088349865
0.088284382
0.088286688
0.088659735
0.087693763
0.085395138
0.083012286
0.080599729
0.078114195
0.075564492
0.073448483
0.071482151
0.069557618
0.067583837
0.065664506
0.00038215174
0.00093610744
0.001527454
0.0023866981
0.0034158647
0.020647558
0.04548898
0.071718028
0.077888726
0.084592399
0.086138285
0.086746528
0.087238783
0.087139815
0.087103345
0.087122571
0.087497007
0.08684618
0.084578237
0.082230692
0.079867412
0.077415112
0.074920258
0.072734774
0.070819642
0.068922067
0.066986755
0.065096103
0.00036238703
0.00089756633
0.001480131
0.0023276763
0.0033510108
0.019792175
0.04436728
0.070038309
0.076381068
0.082995911
0.084776161
0.085414527
0.085979084
0.085925485
0.085918625
0.08595313
0.086336702
0.085986268
0.083747287
0.081450143
0.079120507
0.076702163
0.074261223
0.072007246
0.070142838
0.068271071
0.066377563
0.064513414
0.00034281261
0.00085935674
0.0014338688
0.0022707158
0.0032887953
0.019036835
0.043248953
0.068360604
0.074857517
0.081427926
0.083414662
0.084077983
0.084727175
0.084704306
0.084732259
0.084775949
0.085168666
0.085113021
0.082902762
0.080656108
0.078359601
0.075975531
0.073588645
0.071267855
0.069453907
0.067606959
0.06575539
0.063917018
0.00032334523
0.00082139274
0.0013884445
0.0022153119
0.0032285487
0.018298385
0.042099738
0.06664827
0.073337391
0.079885747
0.082052536
0.082736139
0.083476151
0.083475664
0.083544174
0.083597445
0.083999445
0.084228281
0.082045189
0.079848875
0.077583716
0.075245772
0.07290164
0.070517969
0.068753595
0.066929807
0.06511979
0.063305826
0.00030387302
0.00078354359
0.0013435473
0.0021608483
0.0031684777
0.017543251
0.040925243
0.064955453
0.07183199
0.078376366
0.080683437
0.081411376
0.082218174
0.082249131
0.082347868
0.082437164
0.082826283
0.083332438
0.081183403
0.079029706
0.076794728
0.074509683
0.07220015
0.06979561
0.068042372
0.066241469
0.064471481
0.062678977
0.0002842769
0.00074565514
0.0012988119
0.0021068552
0.0031100357
0.016784353
0.039756631
0.06331743
0.070339511
0.076892622
0.079307855
0.080090622
0.080951349
0.081017718
0.081141268
0.081273452
0.081645172
0.082367389
0.080319157
0.078197914
0.075994561
0.07376261
0.071484338
0.069129405
0.067318924
0.065546274
0.063815309
0.06204256
0.0002650745
0.00070981181
0.0012586051
0.0020588768
0.0030524151
0.016048692
0.038631168
0.061749106
0.06887216
0.075400582
0.07796642
0.078759117
0.079673194
0.079777314
0.079935567
0.080095805
0.080470997
0.08118642
0.079442723
0.077351178
0.07518031
0.073001919
0.070753592
0.068455408
0.066580987
0.064841828
0.063150273
0.061397538
0.00025401292
0.00068182542
0.0012223056
0.0020112581
0.0029953107
0.015345993
0.037545219
0.060240235
0.067396343
0.073914289
0.07661121
0.077422603
0.078365437
0.078528545
0.078735381
0.078915812
0.079304177
0.080023264
0.078556364
0.076492002
0.07436493
0.072227494
0.070009381
0.067767656
0.065826973
0.064138917
0.062471692
0.060742904
0.00024288939
0.00065389807
0.0011863307
0.0019643892
0.0029392859
0.014689041
0.036516881
0.058788084
0.065936031
0.072441539
0.075248537
0.076086152
0.0770548
0.07728496
0.07752966
0.077735571
0.07813156
0.07886195
0.077658225
0.075620233
0.073546124
0.071439695
0.069252371
0.067066879
0.065059921
0.063423128
0.06177759
0.060088377
0.0002317498
0.00062611209
0.0011508726
0.0019186278
0.0028849044
0.014091228
0.035565469
0.057344299
0.064553193
0.070962989
0.073883952
0.074750147
0.075736148
0.076054823
0.076315238
0.076553947
0.076955383
0.077696095
0.076747561
0.074735536
0.072714305
0.070638382
0.068485005
0.066352982
0.064280284
0.06269423
0.061068389
0.059420886
0.00022060851
0.00059852507
0.0011160714
0.0018742221
0.0028325253
0.013563925
0.034591848
0.05595655
0.063149961
0.069506361
0.072517431
0.073407933
0.074428324
0.074815762
0.075098548
0.075364401
0.07578629
0.076526283
0.075826031
0.073844656
0.071871223
0.069823086
0.067725278
0.065625339
0.063490566
0.061954316
0.060346608
0.058740925
0.0002094024
0.00057107228
0.0010817668
0.0018307739
0.0027813547
0.013017881
0.033633748
0.054516434
0.061753086
0.068068527
0.071150189
0.072058893
0.073136216
0.073568362
0.073880092
0.074168437
0.074614445
0.075352782
0.074891672
0.072960809
0.071015899
0.068996439
0.066953732
0.064884848
0.062721087
0.061204733
0.059615378
0.058051023
0.00019802488
0.00054358408
0.0010475449
0.0017873869
0.0027299918
0.012469535
0.03264746
0.053096525
0.060364727
0.06665506
0.069773424
0.070745076
0.071835432
0.072319134
0.072655604
0.072979448
0.073435547
0.074176506
0.073945553
0.072064932
0.070148688
0.068158302
0.066171515
0.064128938
0.062024377
0.060440703
0.058877093
0.057352907
0.00018641053
0.0005161544
0.0010153067
0.0017474328
0.002679626
0.011922013
0.031673655
0.051704019
0.058984629
0.065245197
0.068407901
0.069433471
0.070529956
0.071067276
0.071422452
0.071799909
0.072249976
0.072998389
0.072998412
0.071158368
0.069269784
0.067320484
0.06537674
0.063359805
0.061313761
0.059661344
0.058132319
0.05664273
0.00017929026
0.00049635913
0.00098774454
0.0017087732
0.0026294843
0.01139771
0.030730656
0.050352496
0.057619491
0.063828179
0.067082007
0.06811153
0.069224237
0.069807593
0.070196399
0.070611825
0.071060939
0.071809009
0.072056109
0.070240086
0.068378728
0.066486114
0.064569624
0.062579438
0.06059195
0.058867941
0.057389868
0.055919519
0.0001725941
0.00047657392
0.00096038739
0.0016706409
0.0025802019
0.010908446
0.029830388
0.049064918
0.056239033
0.062471469
0.065741236
0.066786059
0.067916897
0.068536335
0.068985523
0.06941249
0.069867021
0.070612158
0.071102161
0.069309777
0.067475849
0.065639644
0.063750422
0.061787908
0.059858942
0.058062952
0.056636374
0.055183274
0.00016580729
0.00045687642
0.00093338256
0.0016332631
0.0025320672
0.010457599
0.028977297
0.047756869
0.054956832
0.061090664
0.064393389
0.065455713
0.066598889
0.067281386
0.06776319
0.068209264
0.068659975
0.069425135
0.070137374
0.068369276
0.066572929
0.064783233
0.062918832
0.061014168
0.059114176
0.057249702
0.055874068
0.05443608
0.0001589218
0.00043729198
0.00090679034
0.0015967377
0.0024852182
0.010048161
0.028108117
0.046520314
0.053674089
0.059713776
0.063039491
0.064120865
0.065269635
0.066038988
0.066528241
0.066998346
0.067440493
0.06822664
0.06916051
0.067415331
0.065678816
0.063915016
0.062076688
0.060229894
0.058359112
0.056428062
0.055104364
0.05368033
0.00015188092
0.00041775535
0.00088046375
0.0015607463
0.0024390418
0.009629236
0.027274764
0.045261876
0.05238556
0.058345571
0.061682037
0.062772585
0.06398391
0.064781938
0.065287711
0.065773253
0.066225903
0.067021424
0.068024036
0.066450277
0.06477165
0.063034761
0.061223557
0.059436201
0.057590506
0.05568265
0.05432233
0.052918613
0.00014460113
0.00039810883
0.00085402537
0.0015244711
0.0023925119
0.0092094766
0.026413473
0.043983447
0.051092495
0.056980765
0.060313054
0.061445861
0.062691009
0.063515686
0.064041188
0.064539028
0.065013788
0.065819544
0.066810141
0.065496924
0.063853144
0.062142586
0.06037908
0.058630426
0.056808737
0.054962198
0.0535263
0.052146919
0.00013739062
0.00037947385
0.00082950841
0.0014909057
0.0023463254
0.0087792808
0.025546422
0.042709958
0.049800008
0.055620701
0.058943489
0.060155747
0.061389532
0.062246845
0.062785774
0.063328055
0.063815006
0.06461891
0.065594796
0.064545699
0.062923404
0.061238275
0.059535796
0.057812207
0.056015416
0.054230651
0.052715878
0.051386859
0.00013289014
0.00036493574
0.00080725998
0.0014575779
0.0022998671
0.0083589729
0.024692963
0.041455633
0.048515078
0.054241671
0.057650515
0.058851006
0.060084562
0.060972302
0.061520638
0.06212178
0.062612009
0.06341002
0.06437985
0.063583739
0.061982967
0.060322793
0.058681358
0.056982011
0.055215195
0.053487597
0.051892481
0.050616506
0.00012822221
0.00035035002
0.00078503115
0.0014244132
0.0022537445
0.0079587579
0.023862912
0.04023542
0.047209801
0.052947292
0.056341213
0.057541095
0.058777414
0.059684662
0.060298627
0.060903929
0.061407564
0.06219015
0.063176476
0.062611535
0.061031932
0.05942257
0.057816931
0.056140509
0.054434494
0.052733495
0.05106091
0.049838254
0.00012340964
0.00033578946
0.00076296828
0.0013916497
0.0022082858
0.0075836659
0.023062268
0.038987625
0.046028385
0.051631547
0.055023323
0.05622388
0.057459894
0.058404904
0.059069501
0.059676349
0.060194131
0.060965637
0.061962681
0.061628539
0.060068847
0.058523358
0.056941055
0.055288201
0.053643489
0.051969352
0.050221081
0.04905289
0.00011844101
0.00032126281
0.00074108909
0.0013593019
0.0021634828
0.0072295226
0.022243504
0.037849378
0.04483692
0.050315936
0.053698725
0.054902095
0.05612956
0.057166339
0.057828633
0.058445494
0.058968063
0.059762317
0.06073705
0.060635996
0.059099981
0.057614307
0.056055398
0.054426342
0.052844307
0.051191414
0.049487243
0.048254308
0.00011327024
0.00030669412
0.00071921779
0.0013269852
0.0021183882
0.0068659115
0.021474672
0.03667498
0.043640095
0.049002898
0.052369523
0.053566966
0.054860921
0.055913688
0.056582423
0.057206699
0.057746167
0.058549861
0.059508159
0.059631644
0.058157853
0.056695322
0.055159115
0.053592155
0.052034405
0.050402827
0.048761952
0.047443861
0.00010784234
0.0002919617
0.00069712423
0.0012951774
0.002073717
0.0064993924
0.020684762
0.035493628
0.042439376
0.04769222
0.051028365
0.052276548
0.053593418
0.054653142
0.055331834
0.055955602
0.056555632
0.057324326
0.058274689
0.058616757
0.057205011
0.05576538
0.054251371
0.052748515
0.051213718
0.049603899
0.048027288
0.046622052
0.00010378613
0.00028032895
0.00067834764
0.0012647552
0.0020286266
0.0061321186
0.019896392
0.034317381
0.041237902
0.046374195
0.049719491
0.051022749
0.052315892
0.053386408
0.054069804
0.054725698
0.055353718
0.056093498
0.057026771
0.057629152
0.056241882
0.054826286
0.053342516
0.051896023
0.050382666
0.048811945
0.047283214
0.045790279
0.00010027683
0.00026944446
0.00065940606
0.0012341659
0.0019833792
0.0057743951
0.019119426
0.033155118
0.040031052