/*--------------------------------*- C++ -*----------------------------------*\
  =========                 |
  \\      /  F ield         | OpenFOAM: The Open Source CFD Toolbox
   \\    /   O peration     | Website:  https://openfoam.org
    \\  /    A nd           | Version:  7
     \\/     M anipulation  |
\*---------------------------------------------------------------------------*/
FoamFile
{
    version     2.0;
    format      ascii;
    class       volScalarField;
    location    "50000";
    object      YCO2;
}
// * * * * * * * * * * * * * * * * * * * * * * * * * * * * * * * * * * * * * //

dimensions      [0 0 0 0 0 0 0];

internalField   nonuniform List<scalar> 
113400
(
0.05454624
0.05454624
0.05454624
0.05454624
0.049328329
0.047707649
0.045294477
0.041478653
0.035215441
0.024097339
0.020903064
0.021978987
0.026680569
0.050564349
0.0024692912
0.0032526327
0.0043422009
0.0059082594
0.0076155276
0.0099473132
0.012896607
0.016570901
0.020295053
0.018976168
0.018477655
0.01157215
0.0010837598
0.0011594821
0.053353904
0.052307264
0.050602689
0.048678001
0.045509825
0.041209373
0.035690461
0.028472825
0.028267808
0.027442044
0.027301849
0.036396436
0.039298229
0.012232506
0.0037782147
0.0048932543
0.0063420996
0.0083682622
0.010726913
0.013724792
0.017427221
0.021689788
0.026428569
0.030610126
0.0340388
0.037329606
0.041513037
0.046603598
0.053258329
0.051457177
0.048411785
0.04460462
0.039958663
0.034030546
0.030153959
0.030397125
0.030564734
0.032167252
0.035217473
0.048674144
0.022615262
0.0040888691
0.0046075293
0.0057286413
0.0075714282
0.0096326728
0.012422732
0.015715731
0.01957034
0.023822009
0.028335534
0.032990387
0.037463764
0.041870109
0.046280225
0.050612583
0.053077688
0.05058957
0.046411041
0.041035085
0.035281055
0.032171489
0.031518294
0.032254794
0.033065579
0.034551725
0.044923596
0.03230347
0.0082978061
0.0042450032
0.0054175879
0.0067416403
0.0089136347
0.011206028
0.014175604
0.01759134
0.021444736
0.025563889
0.029748673
0.034007177
0.038258714
0.04242224
0.046461643
0.050355273
0.052972614
0.049983999
0.045133009
0.039666012
0.036426716
0.033983769
0.034385389
0.034578988
0.035577835
0.041033657
0.04309395
0.022343456
0.0042934212
0.0048148786
0.0060109932
0.0076755994
0.0098870897
0.012411893
0.015439326
0.018789393
0.022437018
0.026298
0.030248037
0.034171543
0.038071588
0.041915477
0.045684329
0.04936506
0.053055551
0.050005039
0.045176108
0.042563582
0.038515279
0.037989662
0.036486041
0.037086468
0.039062281
0.048327913
0.034085436
0.012880649
0.0043724615
0.0053454486
0.0065125085
0.0085750279
0.010786758
0.013476827
0.016504014
0.01975812
0.023237366
0.026857632
0.03056048
0.034285584
0.037992867
0.041641774
0.045247449
0.04880219
0.05333291
0.051076153
0.047623493
0.043930288
0.041880481
0.039407054
0.039133425
0.040307246
0.043636915
0.044327881
0.028522007
0.0045870993
0.0047663095
0.0058862776
0.0071801457
0.0094072365
0.01158979
0.014339938
0.017322078
0.020487127
0.023797353
0.027205829
0.030697877
0.034224278
0.037755685
0.041277949
0.044781594
0.048260418
0.053671848
0.051900988
0.050428928
0.046236527
0.043311579
0.042194458
0.041992822
0.042081243
0.049230328
0.037009304
0.022175901
0.0049231418
0.0052881247
0.0064058739
0.0079082709
0.010173049
0.012350767
0.015105709
0.018023649
0.021107263
0.024269
0.027542422
0.030852265
0.034214908
0.037604216
0.041002146
0.044399174
0.047789838
0.054251097
0.053587195
0.050964532
0.048182071
0.045749936
0.04432835
0.044022443
0.047202262
0.046388211
0.031282249
0.013365598
0.0050548786
0.005788667
0.0069109449
0.008633061
0.010886946
0.013088983
0.015806121
0.018647931
0.021649126
0.024711431
0.027845569
0.03104228
0.03426411
0.037521154
0.040812016
0.044117866
0.047429061
0.054352535
0.054040812
0.053046722
0.049615776
0.047436512
0.046751586
0.046458006
0.050079093
0.041434452
0.028795332
0.0059653282
0.0053064404
0.0062957331
0.0073485694
0.0093059682
0.011531053
0.013718979
0.016391172
0.019169866
0.022081646
0.025065718
0.028087796
0.031184271
0.03431812
0.037475717
0.040656474
0.043880112
0.047121424
0.054515031
0.054476828
0.05294546
0.050939932
0.0496226
0.048118244
0.049687112
0.049461367
0.036643604
0.024626972
0.0057835285
0.0058237964
0.0068109858
0.0079051352
0.0099427342
0.012134782
0.014284341
0.016908071
0.019629033
0.022452574
0.025364203
0.028317121
0.031302002
0.034359822
0.037445141
0.040555328
0.043687269
0.046852462
0.054510329
0.054379766
0.053782712
0.052320368
0.050326904
0.051036472
0.05139591
0.045543817
0.032711462
0.017043537
0.0060365442
0.0063330156
0.0073296225
0.008521446
0.010564563
0.012724588
0.01483333
0.017394738
0.020059075
0.02279978
0.025644345
0.028532844
0.031454157
0.034412859
0.037432954
0.040481072
0.043554866
0.046651311
0.05450628
0.054487514
0.054108454
0.052616857
0.052758895
0.05150277
0.053307375
0.041792066
0.030383508
0.010732798
0.0061901187
0.0068051757
0.0078156011
0.0091175391
0.011150701
0.013279838
0.015362745
0.017833556
0.02044339
0.023117645
0.025890534
0.028719874
0.031585524
0.034480725
0.037418296
0.040409707
0.043429197
0.046473892
0.054494635
0.054478412
0.054126576
0.053967825
0.052840233
0.052806224
0.049637129
0.039049666
0.027384878
0.0067540382
0.006416627
0.0072544566
0.0082724782
0.0096812636
0.011696506
0.013796833
0.015854734
0.01823058
0.020788219
0.023410721
0.026107458
0.028882087
0.031695897
0.034542092
0.037417444
0.040337583
0.043306164
0.046301789
0.05448101
0.054473633
0.054439941
0.054012434
0.053339064
0.05425515
0.046874627
0.036113856
0.023549893
0.0071720405
0.0068983857
0.0077366854
0.0087321345
0.010206626
0.012199421
0.01427175
0.016306473
0.018586909
0.021093595
0.02366694
0.026293067
0.029016418
0.031781462
0.034581114
0.037411938
0.040272451
0.043176672
0.046125823
0.054465553
0.054463699
0.054428876
0.054120743
0.054064164
0.054367888
0.044195929
0.033532594
0.019078514
0.0074936719
0.0073827154
0.0082301632
0.0091997188
0.010721518
0.012688563
0.014734278
0.016744532
0.018926819
0.021382625
0.023906931
0.026484955
0.029138881
0.031856474
0.034610723
0.037397846
0.040216159
0.043064689
0.045952591
0.054448214
0.054446459
0.054424368
0.05430897
0.054414332
0.051836905
0.041870131
0.030629959
0.014727051
0.0077301356
0.0078486609
0.0087172943
0.0096683581
0.011225486
0.013165016
0.015185732
0.017171835
0.019256581
0.021662735
0.02413895
0.026671073
0.029256873
0.03192799
0.034637629
0.037381828
0.04015848
0.042966634
0.045805091
0.054429125
0.054427039
0.054425705
0.054448131
0.054457768
0.050229906
0.039832127
0.028337794
0.010769362
0.0078739165
0.0082761925
0.0091874964
0.010123423
0.011696755
0.013611086
0.015610218
0.017571219
0.019561599
0.021920294
0.024350262
0.026838172
0.029374709
0.031986676
0.034653484
0.037356371
0.040092973
0.04286227
0.04566189
0.054408592
0.054405788
0.054420093
0.054450284
0.054493688
0.049056608
0.038470995
0.026847057
0.0086521711
0.00798862
0.008700066
0.009636813
0.010551485
0.012121849
0.01400805
0.015989538
0.017924444
0.019876006
0.022139449
0.024525077
0.026970344
0.029466612
0.032016971
0.03464327
0.037307068
0.040005847
0.042738533
0.045501521
0.054387392
0.054384146
0.054407065
0.054452692
0.054522363
0.047918451
0.037307721
0.025203973
0.0090638483
0.0083958993
0.0091286178
0.010073901
0.010971965
0.012520736
0.01437563
0.016340847
0.018247484
0.020180205
0.022332277
0.024675094
0.02707862
0.029535332
0.032039661
0.034614029
0.037239941
0.039902152
0.042599478
0.045327277
0.05436553
0.054363189
0.054393986
0.054454873
0.054545154
0.046885677
0.036147938
0.023020711
0.0094321851
0.0088547467
0.0095649982
0.010510318
0.011391537
0.012909257
0.014731843
0.016681675
0.018559194
0.02047167
0.022515094
0.024816042
0.027178343
0.029595678
0.032062498
0.034578574
0.03716703
0.039793284
0.042455266
0.045148579
0.054342781
0.05434174
0.054380963
0.05445691
0.054563421
0.046012132
0.035254949
0.020933082
0.0097800533
0.0093118827
0.010007475
0.010945024
0.011807573
0.013287411
0.015078403
0.017001278
0.018861762
0.020753708
0.022691575
0.02495129
0.027272738
0.029650952
0.032080282
0.034553558
0.037091401
0.039682142
0.042309165
0.044968449
0.054319221
0.054319899
0.054368045
0.0544589
0.054579393
0.045177108
0.034434188
0.01911445
0.010127121
0.0097676942
0.010458979
0.011378131
0.012224924
0.013658942
0.015419887
0.017308692
0.019162737
0.021030832
0.02291153
0.025086865
0.027367927
0.029706916
0.032098634
0.034535868
0.037017986
0.039573496
0.04216583
0.044791479
0.054294889
0.054297764
0.054355399
0.054463399
0.054597741
0.0443409
0.033594468
0.017491856
0.010491051
0.010229503
0.010909172
0.011810444
0.01264585
0.014025568
0.015756337
0.01761158
0.019460274
0.021302344
0.023165218
0.0252229
0.02746488
0.029765111
0.032119514
0.034520737
0.0369651
0.039469516
0.042027507
0.044619866
0.054269775
0.054275523
0.054344586
0.054468614
0.054081672
0.043569534
0.032697001
0.015993024
0.010860762
0.010696649
0.011361842
0.012245216
0.013071605
0.014389193
0.016089423
0.017910558
0.019753914
0.021569245
0.023412902
0.02535866
0.027562997
0.029825475
0.032143251
0.034508925
0.036919104
0.0393723
0.041895168
0.044454711
0.054244299
0.054253482
0.054334128
0.054472706
0.053488847
0.04290015
0.031712981
0.014726696
0.011264496
0.011164736
0.011811346
0.012677141
0.013497039
0.014749615
0.016419776
0.018207078
0.02004544
0.021833985
0.023658145
0.025495019
0.027662133
0.02988723
0.032168811
0.034499367
0.036875689
0.039296261
0.041767806
0.044295148
0.054218252
0.054230919
0.054323124
0.054475795
0.053061207
0.042342367
0.030832424
0.013692433
0.011694007
0.011634595
0.01226112
0.013110921
0.013921127
0.015104288
0.01674532
0.018499879
0.020334002
0.022096747
0.023897869
0.025717124
0.027763783
0.029952421
0.032197842
0.034493455
0.036836265
0.039224185
0.041652554
0.044141622
0.054191622
0.054207851
0.054311658
0.054478556
0.052711197
0.041797942
0.030162047
0.013255231
0.012151274
0.012105549
0.012712072
0.013547835
0.014345788
0.015452103
0.017064906
0.018787928
0.020609691
0.022354786
0.024132163
0.02593489
0.027867174
0.030021071
0.032231475
0.034492896
0.036802715
0.039158257
0.041555088
0.043996083
0.054164471
0.054184281
0.054299624
0.05448069
0.052430683
0.041390166
0.029690283
0.013597159
0.012632905
0.012580002
0.013163369
0.01398521
0.014771373
0.015795612
0.017380861
0.019074103
0.020862909
0.022610957
0.024364028
0.026150599
0.027973379
0.030093252
0.032269245
0.034496988
0.036774265
0.039097813
0.041463388
0.043869336
0.054136848
0.054160248
0.054287101
0.054482375
0.05215005
0.041073817
0.029415498
0.014168891
0.013116817
0.013059471
0.013618518
0.014424122
0.015200332
0.016138932
0.017696441
0.019360738
0.021118127
0.022869086
0.024598486
0.026365816
0.028147172
0.030172237
0.032314567
0.03450861
0.036753448
0.039045168
0.041379662
0.043755671
0.054108775
0.054135801
0.054274144
0.054483951
0.051944438
0.040922749
0.029282184
0.014743346
0.013604713
0.013544996
0.014079981
0.014866478
0.015631282
0.016481552
0.018012074
0.019646604
0.021373466
0.023126516
0.024832654
0.026578294
0.028344527
0.030256266
0.032366453
0.034527568
0.03674051
0.039000834
0.041304639
0.043650951
0.054080281
0.054110911
0.054260625
0.054485075
0.051827693
0.040899982
0.029246844
0.015322287
0.014100153
0.014034275
0.014545965
0.015313541
0.016066555
0.016824668
0.01832863
0.019933701
0.021629988
0.023384873
0.025067151
0.02679025
0.028540649
0.030344383
0.032423364
0.034552263
0.036733915
0.038963382
0.041236994
0.043554054
0.054051395
0.05408557
0.054246493
0.054485483
0.051787615
0.04093658
0.029259949
0.015900316
0.014609879
0.014531483
0.015015249
0.01576277
0.016504764
0.017173676
0.018647186
0.020222818
0.021888726
0.023640566
0.02530338
0.027004324
0.028736681
0.030483442
0.032486413
0.034583787
0.03673432
0.038933228
0.041177001
0.043465179
0.054022146
0.054059753
0.054231897
0.054487499
0.051795535
0.041010133
0.029320592
0.016480769
0.015135672
0.015037227
0.015488552
0.016218695
0.01694718
0.017615791
0.018967909
0.020514744
0.022151329
0.02387148
0.02554228
0.027219785
0.028931813
0.030663442
0.032555574
0.03462273
0.036742572
0.038911371
0.041125714
0.043385382
0.053992609
0.054034678
0.054218861
0.054488719
0.051834181
0.041107026
0.029392454
0.01706911
0.015684567
0.015549021
0.015970438
0.016679502
0.017394186
0.018057257
0.01929107
0.020810262
0.022418672
0.024107579
0.025785969
0.027438849
0.029129566
0.030844841
0.032631339
0.034669143
0.036758902
0.03889813
0.041083509
0.043315075
0.053962946
0.054010408
0.054205103
0.054489129
0.051898112
0.041221602
0.029466713
0.017666984
0.016263507
0.016065929
0.016466917
0.017142973
0.017844395
0.018500841
0.019617575
0.021110382
0.022691704
0.024350115
0.02603581
0.027664173
0.029333765
0.03103071
0.032748577
0.034724773
0.036784883
0.038894678
0.041051317
0.043255035
0.053932999
0.053985705
0.054190656
0.054488809
0.051983083
0.04132341
0.029617001
0.018280937
0.016860217
0.016585271
0.01696701
0.017609407
0.018296172
0.018947856
0.019947388
0.021414668
0.022969658
0.024598557
0.026291278
0.027895529
0.0295447
0.031220548
0.032923501
0.034791
0.036822471
0.038903128
0.041031286
0.04320738
0.053902777
0.053960584
0.054175535
0.054487732
0.052088551
0.041420793
0.029842086
0.018914376
0.017471664
0.017106903
0.017473211
0.018082092
0.018752499
0.019397856
0.02028027
0.021722295
0.02325137
0.024852141
0.026532515
0.028131294
0.029759587
0.031414545
0.033102006
0.034867086
0.036870953
0.038923308
0.041023593
0.043172525
0.053872285
0.053935056
0.054159766
0.054485838
0.052190224
0.041590958
0.030263453
0.019564833
0.018090271
0.017631595
0.017983489
0.018559493
0.019213122
0.019850909
0.020616428
0.022034343
0.023536443
0.02511084
0.026764074
0.028371408
0.029978458
0.031613326
0.033284798
0.034971441
0.036929477
0.038954082
0.041026899
0.043149092
0.053841531
0.053909055
0.054143108
0.054482818
0.052342731
0.041864627
0.03078761
0.020223621
0.018711062
0.018160412
0.018498583
0.019039922
0.019675289
0.020305801
0.020956174
0.022351188
0.023826594
0.025375509
0.027000663
0.02861706
0.030201713
0.031817349
0.033469316
0.035141372
0.036997696
0.038995791
0.041041548
0.043137276
0.053810526
0.05388258
0.054125584
0.054478759
0.05254636
0.042216703
0.031344889
0.020886191
0.019333803
0.018694755
0.01902123
0.019524412
0.020142589
0.020767047
0.021316803
0.022671489
0.024120372
0.025644366
0.027241249
0.028866538
0.030427984
0.032023953
0.033655313
0.035311867
0.037073245
0.039046187
0.041065919
0.043135985
0.053779282
0.053855603
0.054107089
0.054473529
0.052795803
0.042603852
0.031911072
0.021551536
0.019963094
0.019233652
0.019550607
0.020014747
0.020618594
0.021231554
0.021783038
0.022996672
0.024419727
0.025918664
0.02748724
0.029120484
0.030658493
0.032234963
0.033845695
0.035486877
0.037157019
0.039105323
0.041099486
0.043144437
0.053747816
0.053828112
0.054088714
0.054468974
0.053063115
0.042997638
0.032468185
0.022214421
0.020606123
0.019778914
0.020085735
0.020507165
0.021096654
0.021696028
0.022245168
0.023327089
0.024725716
0.026200517
0.027742265
0.029350882
0.030897
0.032452842
0.034043962
0.035666756
0.037313145
0.039175461
0.041144855
0.043164776
0.053716317
0.053803473
0.054071667
0.0544633
0.053334646
0.043389694
0.033007407
0.022880781
0.021259066
0.020330058
0.020624788
0.021002506
0.021576108
0.022160456
0.022707356
0.023662446
0.025038338
0.026490008
0.028005979
0.029589427
0.031144315
0.032678746
0.034249619
0.035852779
0.037482993
0.039256367
0.04120198
0.043197548
0.053684737
0.053779277
0.054054052
0.05445692
0.053595823
0.043763338
0.033493652
0.023553302
0.021926906
0.02088576
0.021164871
0.021502285
0.02206063
0.022629091
0.023172312
0.024002691
0.025356943
0.026786138
0.028277097
0.029836068
0.031399074
0.03291215
0.034462539
0.036046024
0.037659802
0.039347976
0.041270395
0.043242209
0.05365295
0.053754787
0.054036013
0.054449975
0.053848002
0.044113288
0.033998231
0.024233066
0.022609352
0.021445435
0.021708571
0.022006433
0.022550881
0.023103414
0.023642
0.024347721
0.025680898
0.027087735
0.028554624
0.030089903
0.031660252
0.033152481
0.034682688
0.036247096
0.037843847
0.039465852
0.041349872
0.04329832
0.053620962
0.053729999
0.054017505
0.054442329
0.054094488
0.044449579
0.034534571
0.024922526
0.023300096
0.022007478
0.022256513
0.022513725
0.023045135
0.023580607
0.024114267
0.024697791
0.026011205
0.027394137
0.028838749
0.030351022
0.031919394
0.03339985
0.034910119
0.036456514
0.038033919
0.039641114
0.041441284
0.043367091
0.053588775
0.053704962
0.053998665
0.054434154
0.054321769
0.044816764
0.035154386
0.025624248
0.023990437
0.022572045
0.022809643
0.023025433
0.02354379
0.024061538
0.024591637
0.025052739
0.026346693
0.027705495
0.029128088
0.030618249
0.032161839
0.033652402
0.035141699
0.03667054
0.038228495
0.039820681
0.041542407
0.043446541
0.053556384
0.053679614
0.053979285
0.054425136
0.054573694
0.045244677
0.035813961
0.026330955
0.024681944
0.023139885
0.023366351
0.02354233
0.024048071
0.024551554
0.0250711
0.025523053
0.026688114
0.028023617
0.02942431
0.030890805
0.032410932
0.033910414
0.035378366
0.036889697
0.038428286
0.040005665
0.041652541
0.043535602
0.053523795
0.053653909
0.05395922
0.054414969
0.054840758
0.045692848
0.036469675
0.027039078
0.025369349
0.023713279
0.023926295
0.024063961
0.024554451
0.02504388
0.025550083
0.026000207
0.02703539
0.028348838
0.029728578
0.031171046
0.032668479
0.034175558
0.035622336
0.037116176
0.038635702
0.040198109
0.041781424
0.043635243
0.05349102
0.053627907
0.053938971
0.054405236
0.054942001
0.046142728
0.037101391
0.027747474
0.026058402
0.024290471
0.024490988
0.024615324
0.025063752
0.025537594
0.026029511
0.026476
0.027388517
0.028681168
0.030040927
0.031459957
0.032935519
0.0344484
0.035875369
0.037350673
0.038852609
0.040397093
0.041966087
0.043746196
0.053458693
0.053604436
0.053921681
0.054394336
0.054942693
0.046579178
0.037690896
0.028446571
0.026750398
0.024866793
0.025058391
0.025167223
0.025576481
0.02603329
0.02651098
0.026953473
0.027745735
0.029019979
0.030360279
0.031756658
0.033211187
0.034727049
0.036136909
0.037593259
0.039078043
0.040603994
0.042158279
0.043868259
0.053427036
0.053582351
0.053903725
0.054382235
0.054942266
0.046999915
0.038245534
0.029147186
0.02744291
0.025447742
0.02562825
0.025720346
0.026092108
0.026532582
0.026995996
0.027434125
0.028108904
0.029365098
0.030686051
0.03206044
0.033495389
0.034987731
0.036406267
0.037842612
0.039310813
0.04081839
0.042358215
0.044000543
0.05339522
0.05356003
0.053885326
0.054369549
0.054941429
0.047399837
0.038760446
0.02984973
0.028132915
0.026032068
0.026198638
0.026275955
0.026608505
0.027035306
0.027482272
0.027916794
0.028477773
0.029716986
0.031018674
0.032372051
0.033788212
0.035257497
0.036684369
0.038100299
0.039551964
0.041041187
0.042566753
0.044142981
0.053363282
0.053537613
0.053866833
0.054356931
0.054940914
0.047762309
0.039287725
0.030535921
0.028831171
0.026618076
0.026770309
0.026835172
0.027126742
0.027541488
0.027971251
0.028401236
0.028851926
0.030075142
0.031355427
0.032690381
0.034088046
0.035534916
0.03696982
0.038365574
0.039801089
0.041272364
0.042782579
0.044322163
0.053331229
0.053515133
0.053848302
0.054344311
0.054940527
0.048133187
0.039850934
0.031234522
0.029528362
0.027237402
0.027344754
0.027396443
0.027649005
0.028051137
0.028466009
0.028891511
0.029239313
0.030438621
0.031697605
0.033014069
0.034393314
0.035818088
0.037260578
0.038636407
0.040056132
0.041509734
0.043003633
0.044528586
0.053299049
0.053492533
0.053829579
0.054331366
0.05493915
0.048524238
0.040436097
0.03193863
0.030214425
0.027922904
0.02792332
0.027960158
0.028176937
0.028564744
0.02896709
0.029381713
0.029729343
0.030808315
0.032046813
0.033344919
0.034703236
0.036107883
0.037556969
0.038913093
0.040317309
0.041753281
0.043230967
0.044741183
0.053266739
0.05346975
0.05381048
0.054317679
0.054936639
0.048924937
0.041016051
0.032671881
0.030890439
0.028597621
0.028502125
0.028527517
0.028707966
0.029081582
0.029468367
0.029870691
0.030213696
0.031183934
0.032403171
0.033683959
0.035020812
0.036406331
0.037857472
0.039197437
0.040586532
0.042005124
0.043466953
0.044962538
0.053234315
0.053446811
0.053791816
0.054305721
0.054933895
0.04931295
0.041571042
0.033459022
0.031554419
0.029268981
0.029077006
0.029096906
0.029239672
0.029601358
0.029970232
0.030360435
0.030698741
0.031562485
0.032766019
0.034029879
0.035345864
0.036713926
0.038143701
0.039489886
0.040862545
0.042264482
0.043711163
0.045192509
0.05320433
0.053428713
0.053777337
0.054294559
0.054931273
0.049678331
0.04209841
0.034203356
0.032217665
0.029939465
0.029655808
0.029667343
0.029773472
0.030123291
0.030474755
0.030853369
0.031187052
0.031947648
0.033135709
0.034382956
0.035678457
0.037029797
0.038437991
0.039790829
0.041145481
0.04253147
0.043963059
0.045429166
0.053176004
0.05341207
0.053762934
0.054283675
0.054929133
0.050018802
0.042596149
0.034908478
0.03287768
0.030607136
0.030237205
0.030236955
0.030311425
0.030643746
0.030982544
0.031347332
0.031676545
0.032339167
0.033512311
0.034743052
0.036018771
0.037353953
0.038740794
0.040100464
0.041436159
0.042807295
0.044222482
0.04567325
0.053147683
0.053395509
0.053748842
0.054273481
0.05492809
0.050328531
0.043051885
0.03560311
0.033515953
0.031275946
0.030819623
0.030807242
0.030853006
0.031167091
0.031493223
0.031845136
0.03216757
0.032736823
0.033895893
0.035106621
0.03636634
0.03768549
0.039051436
0.040417904
0.041734886
0.043091514
0.044489958
0.045925636
0.053119405
0.053379084
0.053735187
0.054264172
0.054928333
0.05060646
0.043506917
0.036289356
0.03416069
0.031935305
0.031402876
0.031380287
0.031393069
0.031694157
0.03200613
0.032347427
0.032663037
0.03314077
0.03428603
0.035476996
0.036720814
0.038024048
0.039369277
0.040742358
0.04204085
0.043383314
0.04476512
0.046185946
0.053091169
0.053362766
0.05372188
0.05425552
0.054929541
0.050877843
0.043967449
0.036982969
0.034804929
0.032586163
0.031987365
0.031956291
0.031933927
0.032225058
0.03252119
0.032852177
0.033161012
0.03355069
0.034682627
0.035854065
0.037082658
0.038367565
0.03969451
0.041073555
0.042353954
0.043682764
0.045048153
0.046454498
0.053062955
0.053346491
0.053708766
0.054247194
0.054930612
0.051151746
0.04443227
0.037670733
0.035444632
0.033226037
0.032575325
0.032527208
0.032478342
0.032756763
0.033040564
0.033355327
0.033662034
0.033966169
0.035083137
0.036237223
0.037451162
0.038716443
0.040026962
0.041402689
0.042673749
0.043989164
0.045338619
0.046731166
0.053034724
0.053330174
0.053695635
0.054238899
0.054932107
0.05142425
0.044894586
0.038342825
0.03608048
0.033857529
0.033166606
0.033097706
0.033026995
0.033291544
0.033564854
0.033862977
0.034167294
0.034404123
0.03548689
0.036626245
0.037825335
0.039071105
0.040366183
0.041723402
0.042999641
0.044300741
0.045634676
0.047013921
0.053006857
0.053315094
0.053685199
0.05423393
0.05493372
0.051687924
0.045343839
0.038995652
0.036708124
0.034492911
0.033746528
0.033672843
0.033581156
0.033830653
0.034090123
0.034376433
0.034672241
0.034907447
0.035896757
0.037022111
0.038206173
0.0394324
0.040712729
0.042049858
0.043332322
0.044618183
0.045936546
0.047302575
0.052984697
0.053304816
0.053677086
0.054228965
0.054935408
0.051940072
0.045781435
0.039632824
0.037339663
0.035127034
0.034332109
0.034250669
0.03414779
0.034373866
0.0346148
0.034892035
0.035176923
0.035407771
0.036311951
0.037424274
0.038590846
0.03980045
0.04106631
0.042383346
0.043672627
0.044940991
0.046245427
0.047597513
0.05296262
0.053294574
0.053669097
0.0542243
0.054937603
0.052177301
0.046202785
0.040255921
0.037966345
0.035757106
0.03492127
0.034829586
0.034716621
0.034916679
0.035142786
0.035409394
0.03568546
0.03590988
0.036732908
0.037832663
0.038979704
0.040175
0.041426429
0.042723547
0.044019744
0.045270664
0.046561871
0.04789847
0.052940695
0.053284439
0.05366139
0.05422023
0.054940773
0.05239628
0.046603325
0.040878247
0.038565427
0.036390087
0.035512191
0.035409551
0.035289487
0.035456185
0.035675061
0.035928864
0.036197146
0.036415438
0.037159891
0.038247326
0.039374928
0.040556158
0.041792673
0.043070484
0.044373591
0.045607274
0.046885715
0.048206682
0.052918985
0.053274469
0.053654103
0.054217001
0.054945276
0.05259449
0.047010778
0.041468258
0.039172673
0.037016046
0.036104896
0.03599286
0.035859818
0.036000034
0.036209641
0.036452623
0.036708593
0.036924118
0.03759238
0.038666539
0.03977608
0.04094414
0.04216167
0.043424105
0.044733504
0.045950296
0.047216392
0.048521809
0.052897485
0.053264639
0.053647158
0.054214385
0.05495061
0.052796194
0.047403043
0.042072969
0.039778459
0.037636108
0.036698968
0.036579729
0.036425882
0.036548004
0.036746364
0.036980131
0.037222777
0.037435905
0.038030924
0.039086957
0.040183047
0.041337923
0.042536679
0.043784081
0.045092578
0.046299157
0.04755303
0.048843166
0.052876131
0.053254838
0.053640274
0.054211746
0.054955743
0.052994473
0.047802336
0.042673051
0.04038204
0.038248318
0.037297488
0.037155233
0.036995985
0.037098007
0.03728658
0.03750704
0.037740903
0.037950489
0.038475114
0.039513156
0.040595835
0.041737585
0.042917532
0.044151141
0.045440674
0.046654485
0.047894832
0.049170118
0.052854882
0.053245161
0.053635013
0.054211758
0.054961535
0.053190583
0.048197854
0.043267059
0.040983547
0.038860174
0.037893035
0.037730956
0.037568821
0.037650334
0.03783115
0.038032495
0.038262807
0.038467586
0.038922133
0.039944731
0.041014439
0.042140704
0.043304512
0.044524575
0.045795306
0.04701663
0.04824236
0.049503259
0.052841304
0.053242032
0.053633551
0.054212716
0.054967399
0.053378693
0.048585146
0.043852156
0.041580626
0.039475611
0.038475537
0.038311343
0.038142968
0.038206738
0.038374853
0.038562219
0.038787685
0.038990011
0.039370471
0.040381825
0.041438815
0.042546372
0.043697238
0.044903621
0.046155626
0.047385121
0.048594509
0.049842416
0.052828844
0.053238991
0.053632269
0.054214031
0.054973875
0.053556026
0.048961735
0.044423553
0.042184262
0.040070076
0.039064243
0.038894108
0.038718915
0.038768429
0.038914865
0.039096957
0.039315845
0.039516521
0.039824245
0.040824498
0.041869145
0.042957666
0.044095632
0.045288202
0.046521554
0.047759362
0.048952368
0.05018773
0.052816721
0.053236112
0.053631307
0.054215926
0.054981256
0.053722136
0.049327262
0.045002869
0.042751984
0.040674083
0.039656544
0.039479759
0.039299764
0.039325846
0.039459949
0.039634457
0.039849746
0.04004229
0.040283039
0.041272195
0.04230244
0.04337405
0.044499862
0.045673548
0.046892986
0.04813855
0.049315413
0.050538757
0.052804989
0.053233433
0.053630744
0.054218534
0.054989735
0.053876794
0.049697569
0.04554347
0.043320512
0.041277618
0.04025213
0.040068219
0.039885756
0.039880262
0.04001052
0.040175958
0.040389187
0.040573228
0.040747315
0.041725759
0.042736551
0.043795597
0.044909071
0.046063849
0.04726939
0.048522397
0.049683074
0.050894764
0.052793622
0.053230916
0.053630489
0.054221638
0.054998856
0.054032071
0.050044039
0.046083378
0.043892024
0.041878988
0.040850152
0.040662547
0.040457844
0.040440707
0.040564289
0.040723409
0.040928635
0.041107619
0.04125917
0.042184636
0.043176366
0.044222537
0.045323496
0.046459338
0.047651702
0.048894558
0.050056041
0.051255049
0.052782517
0.053228437
0.053630235
0.05422455
0.055007761
0.054181529
0.050393475
0.046628551
0.04446606
0.042480079
0.041453301
0.041250268
0.041033364
0.041005404
0.041121329
0.041275167
0.041468858
0.041642698
0.041795284
0.042643504
0.043621551
0.044655108
0.045739865
0.046860858
0.048039887
0.049264411
0.050434836
0.05162056
0.05277267
0.053227367
0.053632369
0.054230463
0.055016997
0.054331164
0.050743189
0.047173217
0.045040825
0.04308047
0.042057701
0.041826099
0.041612896
0.041572377
0.041682722
0.04182109
0.042009003
0.04217921
0.042333769
0.04310453
0.044072066
0.045093314
0.04615942
0.047267971
0.048433538
0.049639681
0.050819737
0.05198983
0.052771797
0.053231372
0.053637248
0.054236697
0.055025965
0.054476249
0.051088885
0.047714566
0.045613874
0.043688696
0.04263576
0.042407995
0.042194768
0.042142626
0.04224871
0.042366947
0.042552524
0.042719879
0.042874278
0.04357059
0.04452769
0.045536795
0.04658426
0.047680606
0.048832003
0.050020411
0.051210429
0.0523647
0.052771261
0.053235484
0.053642244
0.054243107
0.055035224
0.054614654
0.051428746
0.048250069
0.046195292
0.044266568
0.043220518
0.042992816
0.042778611
0.042718591
0.042801801
0.042917748
0.043097966
0.04326551
0.043414089
0.044041446
0.044988357
0.045980227
0.047013921
0.04809852
0.049231345
0.050406192
0.051605755
0.052744277
0.052771176
0.053239782
0.053647505
0.054249937
0.055045116
0.05474557
0.051762035
0.048793018
0.046730041
0.044852865
0.043809387
0.04358133
0.043367198
0.043293124
0.043358409
0.043472975
0.043647628
0.043814287
0.043958474
0.04451729
0.045454369
0.046426273
0.04744858
0.048521364
0.049635481
0.050796782
0.052005607
0.053128327
0.052771581
0.053244285
0.053653068
0.054257233
0.055055679
0.054870115
0.052095412
0.049275282
0.047268872
0.045439991
0.044401729
0.044172634
0.043961371
0.043854932
0.043920042
0.044030674
0.044202662
0.044358988
0.044507699
0.044997751
0.045924292
0.04687704
0.047888055
0.048949107
0.050044391
0.051193339
0.05238819
0.053517826
0.052772415
0.053248933
0.053658782
0.054264647
0.055066019
0.054992134
0.052396295
0.049762034
0.047810447
0.046027109
0.044996852
0.044769717
0.044535289
0.044422492
0.044484701
0.044592259
0.044758004
0.044907887
0.045059495
0.045483507
0.046391246
0.047332403
0.048332471
0.049375879
0.050458048
0.051594768
0.052771891
0.053912338
0.052773555
0.05325361
0.053664464
0.054273291
0.0550775
0.055109167
0.052698769
0.05024893
0.048354266
0.046614338
0.045597279
0.045352002
0.045109723
0.044993877
0.045052126
0.045159107
0.045305529
0.04546197
0.045614143
0.045974087
0.04686301
0.047792601
0.048781863
0.049807217
0.050876447
0.052000906
0.053160182
0.054311857
0.052782554
0.053263853
0.053675979
0.054284502
0.05508868
0.055223192
0.052998311
0.050733687
0.04889925
0.047205158
0.046187086
0.045922225
0.045688549
0.04556857
0.045624514
0.045720664
0.04585768
0.046019072
0.046174383
0.046460813
0.047339211
0.048257718