/*--------------------------------*- C++ -*----------------------------------*\
  =========                 |
  \\      /  F ield         | OpenFOAM: The Open Source CFD Toolbox
   \\    /   O peration     | Website:  https://openfoam.org
    \\  /    A nd           | Version:  7
     \\/     M anipulation  |
\*---------------------------------------------------------------------------*/
FoamFile
{
    version     2.0;
    format      ascii;
    class       volScalarField;
    location    "50000";
    object      YN2;
}
// * * * * * * * * * * * * * * * * * * * * * * * * * * * * * * * * * * * * * //

dimensions      [0 0 0 0 0 0 0];

internalField   nonuniform List<scalar> 
113400
(
0.645708
0.645708
0.645708
0.645708
0.6457082
0.64570831
0.64570861
0.64570928
0.64571079
0.64571427
0.64572288
0.6457456
0.64582083
0.64612729
0.6467424
0.64743885
0.64833239
0.64943692
0.65080665
0.65251205
0.65465366
0.65737054
0.66084994
0.66521457
0.67054524
0.67666709
0.68259496
0.68781858
0.64570887
0.64570901
0.64570934
0.64570993
0.64571086
0.64571252
0.64571544
0.64572083
0.64573169
0.64575525
0.64581311
0.64597564
0.64638602
0.64700327
0.64760398
0.64850934
0.64968073
0.65115418
0.6529665
0.6551657
0.65780755
0.66093977
0.66456389
0.66859589
0.67291544
0.67730375
0.68145535
0.68518118
0.64571094
0.64571131
0.64571218
0.64571371
0.64571621
0.6457204
0.64572782
0.64574162
0.64576909
0.64582733
0.64595853
0.64627984
0.6468089
0.64739713
0.64814001
0.64916206
0.65048677
0.65215008
0.65417144
0.65655749
0.65929671
0.66237109
0.66571642
0.66923613
0.67281328
0.67632397
0.67967278
0.68281769
0.64571448
0.64571519
0.64571688
0.64571982
0.6457248
0.64573331
0.64574857
0.64577695
0.64583212
0.64594537
0.646202
0.646661
0.6471919
0.64785031
0.64874218
0.64991562
0.65141746
0.65324327
0.65539791
0.65786456
0.66059432
0.66352106
0.6665765
0.66968724
0.67278947
0.67582763
0.67876724
0.68159919
0.64572024
0.64572148
0.64572443
0.64572967
0.64573851
0.64575354
0.64578002
0.64582796
0.645918
0.64609972
0.64644652
0.64694553
0.64750005
0.64823418
0.64923159
0.65052606
0.65215406
0.65407807
0.65626342
0.65867638
0.66126528
0.66398259
0.66677782
0.66959917
0.67240808
0.6751797
0.67790125
0.68057184
0.64572903
0.64573108
0.64573592
0.6457446
0.64575902
0.64578319
0.64582461
0.64589735
0.64603191
0.64630041
0.64671472
0.64721889
0.64781671
0.64863032
0.64972039
0.65112215
0.65284295
0.65481046
0.65698636
0.65932932
0.66179402
0.6643443
0.66694756
0.66957234
0.67219472
0.67480035
0.6773831
0.67994347
0.64574227
0.64574551
0.64575326
0.64576682
0.64578914
0.64582597
0.64588769
0.6459955
0.64619236
0.64653156
0.6469874
0.64749311
0.64813409
0.64901847
0.65018504
0.65167503
0.65342886
0.65539504
0.65753268
0.65979546
0.66214744
0.66455963
0.66701128
0.66948701
0.67197203
0.67445733
0.6769392
0.67941781
0.64576162
0.64576655
0.64577829
0.64579839
0.64583113
0.64588438
0.64597268
0.64612208
0.64639149
0.64678283
0.64725077
0.64778063
0.64847508
0.64942166
0.65065674
0.65220001
0.65396493
0.65590881
0.65799829
0.66018859
0.66244683
0.66475248
0.66709078
0.66945207
0.67183119
0.67422273
0.67662344
0.67903266
0.64578893
0.64579614
0.64581293
0.64584143
0.64588779
0.64596208
0.64608249
0.64628611
0.64661576
0.6470394
0.64751929
0.6480857
0.64883568
0.64984035
0.65112739
0.65269949
0.65446263
0.65637456
0.65840988
0.66053126
0.6627113
0.66493125
0.66718147
0.66945493
0.67174795
0.67406013
0.67639058
0.67873783
0.64582633
0.64583645
0.64585952
0.64589935
0.64596296
0.64606351
0.64622423
0.64648982
0.64686222
0.64729542
0.64778453
0.64838184
0.64918236
0.65023545
0.65156403
0.65313752
0.65488455
0.65675947
0.65874243
0.66080204
0.66291628
0.66506807
0.66724852
0.66945416
0.67168155
0.67392905
0.67619798
0.67848944
0.64587793
0.64590467
0.64592022
0.6459737
0.64605834
0.64618973
0.64639673
0.64671723
0.64711556
0.64756126
0.64806416
0.64869444
0.64953646
0.65062804
0.65197552
0.65353968
0.65526086
0.65709717
0.65902988
0.66103314
0.6630886
0.66518247
0.66730479
0.66945239
0.67162451
0.6738193
0.67603606
0.67827567
0.6459523
0.6459987
0.64599694
0.64606686
0.64617527
0.64634177
0.64660035
0.6469539
0.64736223
0.64782516
0.64835358
0.64902192
0.64990199
0.65102045
0.65237642
0.65392647
0.65561701
0.65741384
0.65929897
0.66125036
0.66325261
0.66529444
0.66736651
0.66946387
0.67158633
0.67373367
0.67590485
0.67809945
0.64604776
0.64609248
0.64609183
0.64617939
0.64631412
0.64651736
0.64682264
0.64720076
0.64761577
0.64808938
0.6486411
0.64934511
0.65025983
0.65139967
0.65275194
0.65428291
0.65594037
0.65769749
0.65953823
0.66144238
0.66339675
0.66539171
0.66741885
0.66947259
0.67155127
0.67365534
0.67578464
0.6779383
0.6461481
0.64618035
0.64620639
0.6463143
0.64647894
0.64672344
0.64706145
0.64744604
0.64787606
0.64835482
0.64892406
0.64965887
0.650605
0.65175774
0.65310008
0.6546096
0.65623423
0.65795281
0.65975198
0.66161287
0.66352366
0.66547583
0.66746193
0.66947619
0.67151595
0.67358072
0.67567093
0.67778627
0.64626568
0.64628938
0.64634021
0.64646835
0.64665995
0.64693878
0.64729246
0.64768539
0.64812825
0.64861669
0.64920695
0.6499705
0.65093786
0.65209004
0.65341969
0.65490531
0.65649942
0.6581807
0.65993985
0.66176078
0.66363132
0.66554382
0.66749179
0.66946932
0.67147331
0.67350252
0.67555659
0.6776358
0.6463997
0.6464215
0.64649121
0.64663748
0.64685434
0.64716337
0.6475312
0.64793174
0.64838372
0.64888696
0.64950068
0.65028813
0.65126706
0.65241483
0.65372895
0.65518881
0.6567526
0.65839718
0.66011694
0.66189912
0.66373115
0.66560582
0.66751717
0.66945945
0.67142919
0.67342491
0.67544557
0.67749075
0.64655128
0.64657432
0.64665924
0.64682378
0.64706615
0.64739505
0.64776866
0.64818075
0.64863915
0.6491582
0.64979583
0.65060592
0.65159145
0.65273188
0.65402888
0.65546284
0.65699762
0.65860684
0.66028852
0.66203333
0.66382823
0.66566644
0.66754234
0.66945049
0.67138708
0.67335048
0.67533943
0.67735282
0.64671821
0.64674673
0.64684205
0.64702181
0.64728323
0.64762137
0.64800097
0.64842148
0.64888521
0.6494192
0.65008078
0.65091209
0.65189607
0.65302802
0.65430876
0.65571704
0.65722349
0.6588002
0.66044559
0.66215482
0.66391467
0.66571852
0.6675609
0.66943654
0.6713416
0.67327426
0.6752331
0.67721652
0.64689778
0.64693556
0.64703519
0.64722755
0.64750366
0.64784867
0.64823255
0.64865853
0.64912579
0.64967193
0.65035445
0.65119336
0.65217354
0.65329403
0.65455605
0.65593963
0.65741843
0.65896566
0.6605776
0.6622526
0.66397938
0.66575106
0.6675621
0.6694072
0.67128267
0.67318656
0.67511726
0.67707273
0.64708552
0.64713178
0.64723543
0.64743883
0.64772664
0.64807737
0.64846477
0.64889483
0.64936744
0.64992647
0.65061948
0.65146186
0.65243566
0.65354213
0.65478299
0.65614135
0.6575927
0.65911197
0.66069261
0.6623345
0.66402931
0.66576992
0.66755089
0.66936669
0.67121372
0.67309005
0.6749939
0.67692281
0.64728069
0.64733603
0.64744225
0.64765488
0.64795228
0.64830689
0.64869804
0.64913173
0.64961235
0.65018304
0.65088349
0.65172483
0.65269138
0.65378283
0.65500162
0.65633462
0.65775895
0.65925097
0.66080138
0.66241103
0.66407451
0.66578464
0.66753617
0.66932332
0.67114245
0.67299187
0.67486941
0.67677238
0.64748374
0.64754715
0.64765531
0.64787605
0.64818154
0.64853912
0.64893339
0.64936945
0.64985828
0.65043881
0.65114431
0.65198182
0.65294011
0.65401654
0.65521348
0.65652136
0.65791922
0.65938509
0.66090622
0.66248427
0.66411701
0.66579718
0.66751975
0.66927888
0.67107073
0.67289373
0.67474547
0.67662311
0.64769402
0.64776419
0.64787418
0.64810212
0.64841395
0.6487747
0.64917176
0.64960948
0.65010517
0.65069385
0.65140247
0.65223568
0.65318488
0.65424585
0.6554221
0.65670597
0.65807731
0.65951695
0.66101051
0.66255843
0.66416066
0.6658112
0.66750514
0.66923668
0.67100172
0.67279866
0.67462505
0.67647786
0.6479112
0.64798673
0.64809884
0.64833304
0.64865099
0.64901485
0.64941417
0.64985365
0.65035465
0.6509494
0.65165831
0.65248708
0.65342653
0.65447152
0.65562725
0.65688719
0.65823275
0.6596465
0.66111411
0.6626339
0.66420634
0.66582779
0.66749357
0.6691979
0.67093665
0.67270805
0.67450945
0.67633786
0.64813539
0.64821525
0.64833075
0.64857013
0.64889238
0.6492584
0.64965991
0.65010117
0.65060654
0.65120581
0.65191329
0.6527368
0.65366596
0.65469464
0.65582949
0.65706528
0.65838569
0.65977431
0.66121704
0.66271006
0.66425382
0.66584701
0.66748529
0.66916297
0.67087599
0.67262239
0.67439926
0.67620376
0.64836737
0.64845255
0.64856888
0.64881227
0.6491368
0.6495042
0.64990759
0.65035115
0.65085984
0.65146018
0.65216571
0.65298361
0.65390278
0.65491533
0.65602948
0.6572414
0.65853724
0.65990142
0.66132
0.66278699
0.66430253
0.66586805
0.66747939
0.66913097
0.67081876
0.67254076
0.67429373
0.67607484
0.64860559
0.64869548
0.64881201
0.64905822
0.64938386
0.64975209
0.65015679
0.65060237
0.65111326
0.65171282
0.65241568
0.65322701
0.6541351
0.65513224
0.65622628
0.65741491
0.65868681
0.66002717
0.66142178
0.66286457
0.66435396
0.66589199
0.66747674
0.66910262
0.6707656
0.67246353
0.67419301
0.67595123
0.64884918
0.64894335
0.64905955
0.64930774
0.64963389
0.65000247
0.65040851
0.65085572
0.65136582
0.65196375
0.65266298
0.6534666
0.65436261
0.6553446
0.65641919
0.65758537
0.65883403
0.66015138
0.6615231
0.66294293
0.66440774
0.66591941
0.66747835
0.66907911
0.67071773
0.67239196
0.67409835
0.67583413
0.64909755
0.64919557
0.64931104
0.64956035
0.64988635
0.65025493
0.65066178
0.65110977
0.65161825
0.65221334
0.65290802
0.65370347
0.65458724
0.65555418
0.65660985
0.65775475
0.65898067
0.6602754
0.66162524
0.66302297
0.66446405
0.66594996
0.66748366
0.66905981
0.67067452
0.67232545
0.67400916
0.67572299
0.64935025
0.64945165
0.64956613
0.64981588
0.65014118
0.65050981
0.65091733
0.65136478
0.65187168
0.65246353
0.65315304
0.65393962
0.65481167
0.65576345
0.65680006
0.65792465
0.65912875
0.6604013
0.66172972
0.66310561
0.66452437
0.665986
0.66749459
0.6690464
0.67063746
0.67226539
0.67392674
0.67561903
0.6496071
0.64971141
0.64982476
0.65007439
0.65039871
0.6507675
0.65117423
0.65162087
0.65212601
0.65271447
0.65339806
0.65417455
0.65503518
0.65597198
0.65698994
0.65809425
0.65927677
0.6605277
0.66183513
0.66318986
0.66458767
0.66602666
0.66751089
0.66903892
0.67060679
0.67221209
0.67385143
0.67552245
0.6498678
0.64997463
0.6500867
0.65033566
0.65065888
0.65102728
0.65143245
0.65187803
0.65238114
0.65296597
0.65364336
0.65440932
0.65525855
0.65618052
0.65718
0.65826417
0.65942524
0.66065493
0.66194179
0.66327599
0.66465359
0.66607085
0.66753141
0.66903624
0.67058143
0.67216457
0.67378232
0.67543248
0.6501321
0.65024108
0.6503517
0.65059951
0.65092179
0.65128875
0.65169219
0.65213653
0.65263774
0.65321865
0.65388855
0.65464427
0.6554823
0.65638991
0.65737086
0.65843501
0.65957494
0.66078368
0.66205044
0.66336458
0.66472223
0.66611889
0.6675569
0.66903879
0.67056162
0.67212296
0.67371948
0.67534913
0.65039971
0.65051054
0.65061947
0.65086589
0.65118666
0.65155194
0.65195349
0.65239642
0.65289567
0.65347224
0.6541337
0.65487939
0.65570539
0.65659911
0.65756325
0.65860752
0.65972672
0.66091432
0.66216074
0.66345534
0.66479338
0.66617065
0.66758763
0.66904707
0.67054797
0.67208789
0.67366356
0.67527302
0.65067033
0.65078242
0.65088916
0.65113443
0.65145345
0.65181684
0.65221643
0.65265796
0.65315513
0.65372644
0.65437935
0.65511503
0.65592888
0.65680902
0.65775736
0.65878248
0.65988141
0.66104807
0.66227418
0.66354951
0.66486836
0.66622685
0.66762361
0.66906118
0.67054064
0.67205957
0.67361476
0.67520439
0.65094365
0.65105652
0.6511613
0.65140505
0.65172208
0.65208343
0.65248099
0.65292119
0.65341614
0.65398111
0.65462567
0.65535166
0.65615368
0.65702062
0.65795379
0.65896056
0.66003989
0.66118611
0.66239227
0.66364861
0.66494854
0.66628841
0.66766574
0.6690822
0.67054039
0.67203857
0.67357357
0.67514364
0.6512197
0.65133314
0.65143581
0.65167774
0.65199259
0.65235178
0.65274748
0.65318625
0.65367793
0.6542366
0.65487316
0.65558955
0.65637999
0.65723454
0.65815261
0.6591413
0.66020188
0.66132833
0.6625151
0.66375292
0.66503429
0.66635571
0.66771471
0.66911142
0.67054862
0.67202633
0.6735414
0.67509214
0.6514984
0.65161218
0.65171268
0.6519525
0.65226501
0.65262195
0.6530159
0.65345309
0.6539406
0.65449321
0.65512209
0.65582864
0.65660728
0.65744991
0.6583532
0.65932418
0.66036671
0.66147434
0.66264216
0.66386183
0.66512538
0.66642905
0.66777043
0.66914825
0.67056515
0.67202292
0.67351848
0.67505023
0.65177966
0.65189362
0.65199188
0.65222938
0.65253939
0.65289419
0.65328675
0.65372076
0.65420412
0.65475076
0.65537215
0.65606901
0.65683594
0.65766696
0.65855591
0.65950989
0.66053455
0.6616238
0.66277317
0.66397502
0.66522144
0.66650798
0.6678322
0.66919191
0.67058917
0.67202737
0.67350381
0.67501694
0.65206335
0.65217734
0.65227327
0.6525082
0.65281554
0.6531685
0.65355874
0.65398935
0.65446857
0.65500951
0.65562322
0.6563104
0.65706613
0.65788595
0.65876115
0.65969859
0.66070578
0.66177699
0.66290804
0.66409227
0.66532187
0.66659159
0.66789893
0.66924183
0.67062093
0.67203989
0.67349759
0.6749924
0.65234934
0.65246324
0.65255677
0.6527889
0.6530938
0.65344485
0.653832
0.65425925
0.65473442
0.65526991
0.65587567
0.65655302
0.65729809
0.65810638
0.65896801
0.65988933
0.6608793
0.66193277
0.66304572
0.66421255
0.66542565
0.66667894
0.66796999
0.66929685
0.6706588
0.67205934
0.67349894
0.67497595
0.65263745
0.65275115
0.6528422
0.65307157
0.65337462
0.65372256
0.65410655
0.65453048
0.65500175
0.65553173
0.65612957
0.6567971
0.65753156
0.65832781
0.65917678
0.66008333
0.66105602
0.66209192
0.66318702
0.66433675
0.66553381
0.66677108
0.66804629
0.66935755
0.67070285
0.67208536
0.67350728
0.67496691
0.65292747
0.65304091
0.65312947
0.65335707
0.65365689
0.65400165
0.6543825
0.65480321
0.65527088
0.65579475
0.65638439
0.65704249
0.65776669
0.65855132
0.65938833
0.66028117
0.6612374
0.66225636
0.66333421
0.66446671
0.66564746
0.66686911
0.66812872
0.66942441
0.67075408
0.67211971
0.67352405
0.67496648
0.65321907
0.65333063
0.6534185
0.65364414
0.65394069
0.65428226
0.65465997
0.65507759
0.65554158
0.65605931
0.65664077
0.65728982
0.65800395
0.65877754
0.65960336
0.6604829
0.66142334
0.66242611
0.66348719
0.66460266
0.66576713
0.66697335
0.66821759
0.66949803
0.6708127
0.67216231
0.67354958
0.6749752
0.65351232
0.65361998
0.65370919
0.6539329
0.65422622
0.65456464
0.65493931
0.65535414
0.65581402
0.65632554
0.65689929
0.65753984
0.65824375
0.65900645
0.65982162
0.66068815
0.66161326
0.66260049
0.66364536
0.66474424
0.66589277
0.66708387
0.66831311
0.66957867
0.67087875
0.67221282
0.67358348
0.67499268
0.65380743
0.65391131
0.65400162
0.6542235
0.65451363
0.65484894
0.65522074
0.65563245
0.65608805
0.65659348
0.65715978
0.65779214
0.65848603
0.65923796
0.66004271
0.66089654
0.66180673
0.66277895
0.66380823
0.66489108
0.66602415
0.66720056
0.66841517
0.66966619
0.67095194
0.67227096
0.67362546
0.67501846
0.65410439
0.6542046
0.65429578
0.65451592
0.65480289
0.65513511
0.65550414
0.65591236
0.65636357
0.65686318
0.65742239
0.6580464
0.65873061
0.65947219
0.66026685
0.66110844
0.66200433
0.66296171
0.66397576
0.6650433
0.66616131
0.66732341
0.66852382
0.66976061
0.67103219
0.67233705
0.67367641
0.67505337
0.65440324
0.65449991
0.65459178
0.65481028
0.65509414
0.65542341
0.65578927
0.65619376
0.65664073
0.65713477
0.6576873
0.65830263
0.65897737
0.6597091
0.66049364
0.66132324
0.66220508
0.66314783
0.66414697
0.6651998
0.66630295
0.66745083
0.6686376
0.66986069
0.67111862
0.67240993
0.67373488
0.67509635
0.65470393
0.65479714
0.65488952
0.65510645
0.65538726
0.65571344
0.65607578
0.65647657
0.65691939
0.65740808
0.65795408
0.65856096
0.65922634
0.65994839
0.66072228
0.66154085
0.66240994
0.66333804
0.66432249
0.66536066
0.66644905
0.667583
0.66875648
0.66996626
0.67121095
0.67248913
0.67380015
0.67514659
0.6550063
0.65509614
0.65519048
0.65540426
0.65568241
0.65600504
0.65636379
0.65676097
0.6571998
0.65768349
0.65822209
0.65882084
0.65947728
0.66019001
0.66095358
0.6617618
0.6626191
0.66353315
0.66450335
0.66552705
0.66660085
0.66772108
0.66888154
0.67007831
0.67131007
0.67257535
0.67387279
0.67520452
0.6553103
0.65539686
0.65549373
0.65570525
0.65597929
0.65629803
0.65665328
0.65704696
0.65748196
0.65796066
0.65849198
0.65908281
0.65973074
0.66043432
0.66118807
0.66198649
0.66283263
0.66373335
0.66468988
0.66569954
0.6667591
0.66786574
0.66901326
0.67019721
0.67141617
0.67266855
0.67395304
0.67527091
0.65561679
0.65570423
0.65580399
0.65600837
0.65627761
0.65659238
0.65694427
0.65733466
0.65776622
0.65823898
0.65876369
0.65934719
0.65998723
0.66068154
0.66142585
0.66221512
0.6630502
0.66393802
0.66488156
0.66587772
0.66692351
0.66801688
0.66915175
0.67032309
0.67152941
0.67276917
0.67404107
0.67534554
0.65592599
0.65601587
0.65611581
0.65631303
0.6565774
0.65688822
0.65723685
0.65762416
0.65805178
0.65851901
0.65903735
0.65961386
0.66024641
0.66093176
0.6616669
0.66244736
0.66327169
0.66414698
0.66507801
0.66606124
0.66709385
0.66817398
0.66929615
0.67045526
0.67164925
0.67287667
0.67413626
0.67542765
0.65623652
0.65632869
0.65642909
0.65661922
0.65687876
0.65718567
0.65753112
0.65791561
0.65833852
0.65880084
0.65931319
0.65988317
0.66050817
0.66118503
0.66191137
0.6626833
0.66349732
0.66436063
0.66527958
0.66625035
0.66727019
0.66833732
0.66944689
0.67059394
0.67177577
0.67299105
0.67423849
0.67551698
0.65654842
0.65664279
0.65674387
0.65692711
0.65718189
0.657485
0.65782749
0.65820741
0.65862679
0.65908448
0.65959118
0.66015502
0.66077234
0.66144101
0.66215898
0.66292247
0.66372657
0.66457853
0.66548561
0.66644412
0.66745167
0.66850617
0.66960342
0.67073863
0.67190849
0.67311177
0.67434711
0.67561311
0.65686176
0.65695825
0.65706022
0.65723683
0.65748686
0.65778627
0.65812431
0.65850062
0.65891657
0.65936994
0.65987133
0.6604291
0.66103902
0.66169977
0.66240968
0.6631646
0.6639589
0.66479972
0.66569507
0.66664152
0.66763711
0.66867934
0.66976461
0.67088823
0.67204637
0.67323785
0.67446126
0.67571529
0.65717652
0.65727506
0.65737813
0.65754835
0.65779361
0.65808783
0.65842181
0.65879524
0.65920785
0.65965736
0.66015404
0.66070516
0.66130793
0.66196102
0.662663
0.66340926
0.66419461
0.66502529
0.66590892
0.66684348
0.6678271
0.66885714
0.66993074
0.67104305
0.67218969
0.67336961
0.67458133
0.67582363
0.65749268
0.65759316
0.65769756
0.65786156
0.65809982
0.6583894
0.65872064
0.6590913
0.65950077
0.65994675
0.66043879
0.66098353
0.66157933
0.66222508
0.66291923
0.66365719
0.6644342
0.66525547
0.66612799
0.66705107
0.66802292
0.66904092
0.67010306
0.67120429
0.67233967
0.67350822
0.67470839
0.67593912
0.65781026
0.65791259
0.65801663
0.65817105
0.65840556
0.65869248
0.6590211
0.65938917
0.65979572
0.66023849
0.66072541
0.66126424
0.66185354
0.66249243
0.6631788
0.66390872
0.66467796
0.66549001
0.6663517
0.66726392
0.66822449
0.66923092
0.67028147
0.67137141
0.67249591
0.67365337
0.67484223
0.67606154
0.65812716
0.65822429
0.65832637
0.65848002
0.65871287
0.65899729
0.65932344
0.65968908
0.66009296
0.66053214
0.66101431
0.66154752
0.66213065
0.66276304
0.66344199
0.66416413
0.66492587
0.66572893
0.66658009
0.6674818
0.66843143
0.66942657
0.67046562
0.67154427
0.67265794
0.67380436
0.67498206
0.67619005
0.65844415
0.65853501
0.65863742
0.65879045
0.65902186
0.65930396
0.65962779
0.65999121
0.66039257
0.66082788
0.66130567
0.66183362
0.66241103
0.66303682
0.66370852
0.6644233
0.66517784
0.6659723
0.66681333
0.66770488
0.66864392
0.66962805
0.67065579
0.6717233
0.67282615
0.67396154
0.67512812
0.67632476
0.65876284
0.65884766
0.65894992
0.65910254
0.65933275
0.65961276
0.65993446
0.66029593
0.66069393
0.66112593
0.66159966
0.66212265
0.66269467
0.66331406
0.6639787
0.6646865
0.66543391
0.66621995
0.6670514
0.66793293
0.66886145
0.66983495
0.67085168
0.67190824
0.6730004
0.67412483
0.67528034
0.67646569
0.65908339
0.6591624
0.6592641
0.65941652
0.65964579
0.6599239
0.66024369
0.6606025
0.66099757
0.66142644
0.66189635
0.66241476
0.66298142
0.66359457
0.6642525
0.6649536
0.66569398
0.66647168
0.66729386
0.66816556
0.66908373
0.67004685
0.67105283
0.67209865
0.67318027
0.67429388
0.67543842
0.67661255
0.65940595
0.65947936
0.65958012
0.65973253
0.65996107
0.66023745
0.66055487
0.66091106
0.66130344
0.66172933
0.66219567
0.66270981
0.66327116
0.66387818
0.6645297
0.66522437
0.66595797
0.66672755
0.66754076
0.66840295
0.66931108
0.67026394
0.67125925
0.6722946
0.67336586
0.67446879
0.67560246
0.67676546
0.65973063
0.65979861
0.6598981
0.66005065
0.66027861
0.66055309
0.66086798
0.66122182
0.66161163
0.66203472
0.66249776
0.66300762
0.66356373
0.66416497
0.66481046
0.66549867
0.66622541
0.6669873
0.6677918
0.66864471
0.66954316
0.67048593
0.6714707
0.67249571
0.67355676
0.6746492
0.67577213
0.67692405
0.66005748
0.66012016
0.66021812
0.66037108
0.6605989
0.66087082
0.66118332
0.66153489
0.66192227
0.6623427
0.66280266
0.66330831
0.66385926
0.66445497
0.66509467
0.66577646
0.66649632
0.66725082
0.66804669
0.66889023
0.66977926
0.67071218
0.67168667
0.67270124
0.6737519
0.6748341
0.67594646
0.67708745
0.66038665
0.66044569
0.66054508
0.66069754
0.66092167
0.66119083
0.66150099
0.66185041
0.6622355
0.66265351
0.66311029
0.66361154
0.66415762
0.66474805
0.665382
0.66605734
0.66677036
0.66751807
0.66830589
0.66914006
0.67001976
0.67094297
0.67190728
0.67291138
0.67395155
0.67502359
0.6761255
0.6772557
0.6607204
0.66077957
0.66087835
0.66102636
0.66124677
0.66151317
0.66182106
0.66216843
0.66255137
0.66296702
0.66342039
0.66391733
0.66445873
0.66504416
0.6656724
0.66634129
0.66704781
0.66778902
0.66856914
0.66939437
0.67026489
0.67117844
0.67213277
0.67312652
0.67415631
0.67521812
0.67630946
0.67742901
0.66105637
0.66111567
0.6612139
0.66135763
0.66157429
0.66183797
0.66214366
0.66248912
0.66287012
0.66328334
0.66373314
0.66422599
0.66476297
0.66534354
0.66596615
0.66662881
0.66732911
0.6680639
0.66883634
0.66965297
0.67051445
0.67141835
0.67236291
0.67334648
0.67436598
0.67541763
0.67649844
0.6776073
0.66139465
0.66145411
0.66155184
0.66169145
0.66190438
0.66216539
0.662469
0.66281275
0.66319206
0.66360232
0.66404876
0.66453774
0.66507055
0.66564631
0.66626319
0.66691987
0.66761415
0.66834268
0.66910758
0.66991582
0.67076842
0.67166281
0.67259772
0.67357125
0.67458061
0.67562216
0.67669249
0.67779065
0.66173541
0.66179503
0.66189231
0.66202799
0.66223722
0.66249563
0.6627973
0.66313996
0.66351659
0.66392403
0.66436728
0.66485263
0.66538141
0.66595229
0.66656363
0.66721457
0.66790291
0.66862509
0.66938273
0.67018284
0.67102678
0.67191195
0.67283726
0.67380063
0.67480003
0.67583161
0.67689156
0.67797906
0.66207879
0.66213859
0.66223547
0.66236735
0.66257289
0.66282896
0.66312972
0.66346971
0.66384374
0.66424847
0.66468868
0.66517064
0.66569554
0.66626141
0.66686744
0.66751286
0.66819537
0.66891121
0.66966184
0.67045388
0.67128907
0.67216526
0.67308111
0.67403446
0.67502396
0.67604567
0.67709539
0.67817236
0.66242487
0.66248486
0.66258138
0.66270957
0.66291229
0.66316693
0.66346475
0.6638021
0.66417361
0.66457574
0.66501312
0.66549193
0.66601258
0.66657364
0.6671746
0.66781463
0.66849129
0.66920095
0.66994473
0.67072885
0.6715554
0.67242278
0.6733294
0.67427298
0.6752524
0.67626392
0.67730362
0.67837022
0.66277368
0.6628338
0.66292962
0.66305554
0.66325615
0.66350763
0.66380251
0.66413725
0.66450632
0.66490596
0.66534071
0.66581624
0.6663326
0.66688905
0.66748514
0.66811987
0.66879057
0.66949426
0.67023134
0.67100765
0.67182582
0.67268453
0.67358194
0.67451589
0.67548526
0.67648657
0.67751625
0.67857247
0.66312469
0.66318385
0.66327963
0.66340457
0.66360282
0.66385117
0.66414313
0.66447532
0.66484206
0.66523934
0.66567177
0.66614354
0.66665578
0.66720781
0.66779917
0.66842856
0.66909342
0.66979131
0.67052171
0.67129011
0.67210013
0.6729502
0.67383833
0.67476279
0.6757222
0.6767134
0.67773299
0.67877872
0.6634784
0.66353669
0.66363237
0.66375643
0.66395242
0.66419768
0.66448676
0.66481651
0.66518106
0.66557654
0.66600573
0.66647387
0.66698215
0.66752994
0.66811665
0.66874046
0.66939965
0.67009184
0.67081565
0.67157621
0.67237816
0.67321966
0.67409854
0.67501359
0.67596316
0.67694432
0.67795387
0.67898915
0.66383497
0.66389242
0.66398796
0.66411124
0.66430506
0.6645473
0.66483357
0.66516099
0.66552392
0.6659167
0.66634274
0.66680737
0.66731182
0.66785546
0.66843731
0.66905568
0.66970935
0.67039586
0.67111286
0.67186583
0.67265984
0.67349285
0.67436272
0.67526835
0.67620791
0.67717919
0.67817881
0.67920373
0.66419455
0.66425117
0.66434652
0.66446914
0.66466091
0.66490019
0.66518371
0.66550942
0.66586991
0.6662599
0.6666829
0.66714412
0.66764488
0.66818449
0.66876126
0.6693743
0.67002253
0.67070339
0.67141355
0.67215898
0.67294499
0.67376934
0.67463031
0.67552657
0.67645619
0.67741768
0.67840751
0.67942218
0.66455723
0.66461305
0.66470817
0.66483023
0.66502003
0.66525642
0.66553785
0.66586104
0.66621887
0.66660614
0.66702619
0.66748418
0.66798144
0.66851652
0.66908835
0.66969617
0.67033897
0.67101387
0.67171753
0.67245572
0.6732337
0.67404936
0.6749015
0.67578853
0.67670836
0.67765989
0.67863967
0.67964427
0.66492305
0.66497809
0.66507296
0.66519449
0.66538217
0.66561622
0.66589509
0.66621557
0.66657074
0.66695533
0.66737254
0.66782744
0.66832094
0.66885146
0.66941843
0.67002115
0.67065859
0.67132746
0.67202499
0.67275622
0.67352609
0.67433326
0.67517659
0.67605431
0.67696448
0.67790595
0.67887553
0.67987013
0.66529199
0.66534622
0.66544062
0.66556103
0.66574709
0.66597904
0.66625533
0.66657311
0.66692564
0.66730762
0.66772212
0.66817403
0.66866344
0.66918956
0.66975184
0.67034958
0.6709814
0.67164437
0.67233597
0.67306038
0.67382213
0.67462097
0.67545552
0.67632385
0.67722443
0.67815589
0.67911533
0.68009985
0.66566397
0.66571735
0.66581111
0.66593051
0.66611507
0.66634493
0.66661867
0.66693377
0.66728373
0.6676632
0.66807526
0.66852355
0.66900899
0.66953082
0.67008854
0.67068137
0.67130745
0.67196461
0.67265036
0.67336794
0.67412172
0.67491232
0.67573819
0.67659719
0.67748823
0.67840971
0.67935906
0.68033348
0.66603904
0.66609158
0.66618467
0.66630309
0.66648618
0.66671401
0.66698524
0.66729772
0.66764519
0.66802244
0.6684314
0.66887616
0.66935772
0.66987542
0.67042867
0.67101624
0.67163673
0.67228823
0.67296816
0.67367877
0.67442478
0.67520723
0.67602435
0.67687422
0.6777557
0.67866708
0.67960646
0.68057087
0.66641727
0.66646898
0.66656139
0.66667887
0.66686053
0.66708639
0.66735517
0.6676651
0.66801029
0.66838479
0.66879066
0.66923195
0.66970971
0.67022335
0.670772
0.67135428
0.67196926
0.67261515
0.67328926
0.67399294
0.67473128
0.67550556
0.67631386
0.67715468
0.67802663
0.67892796
0.67985744
0.68081197
0.66679876
0.66684966
0.66694137
0.66705796
0.66723823
0.66746217
0.66772853
0.66803596
0.66837846
0.6687502
0.66915303
0.66959094
0.67006503
0.67057468
0.67111843
0.67169555
0.67230515
0.67294543
0.67361345
0.67431035
0.67504113
0.67580733
0.67660692
0.67743882
0.67830142
0.6791929
0.68011229
0.68105663
0.66718357
0.66723368
0.66732466
0.66744039
0.66761929
0.66784113
0.66810499
0.66840986
0.66874965
0.66911868
0.66951856
0.66995321
0.67042371
0.67092899
0.67146794
0.67204
0.67264427
0.67327892
0.67394093
0.67463118
0.67535442
0.67611238
0.67690348
0.67772645
0.67857956
0.67946132
0.68037058
0.68130465
0.66757171
0.66762103
0.66771127
0.66782608
0.66800324
0.66822302
0.66848457
0.66878684
0.66912394
0.66949028
0.6698873
0.67031875
0.67078545
0.67128634
0.67182057
0.67238769
0.67298665
0.67361544
0.67427154
0.67495523
0.67567099
0.67642073
0.6772034
0.67801744
0.67886105
0.67973314
0.68063232
0.68155618
0.66796315
0.66801167
0.66810116
0.66821492
0.66839031
0.66860807
0.6688673
0.66916698
0.66950142
0.66986513
0.67025931
0.67068745
0.67115017
0.67164673
0.67217634
0.67273855
0.67333204
0.67395503
0.67460532
0.67528242
0.67599051
0.67673219
0.67750649
0.67831168
0.6791459
0.68000834
0.68089744
0.68181119
0.66835781
0.66840555
0.66849425
0.66860697
0.66878059
0.66899634
0.66925325
0.66955036
0.66988217
0.67024326
0.6706345
0.67105909
0.67151788
0.6720102
0.67253526
0.67309256
0.67368041
0.67429767
0.67494219
0.67561272
0.67631313
0.67704687
0.67781275
0.67860894
0.67943394
0.68028674
0.68116569
0.68206944
0.66875573
0.66880269
0.66889058
0.6690023
0.66917415
0.6693879
0.66964254
0.66993712
0.67026626
0.67062458
0.67101273
0.67143381
0.67188874
0.67237692
0.67289743
0.6734495
0.67403179
0.67464341
0.67528212
0.67594582
0.67663859
0.67736441
0.67812189
0.67890912
0.67972496
0.6805682
0.68143714
0.68233078
0.66915693
0.66920313
0.6692902
0.66940094
0.66957104
0.66978282
0.67003522
0.67032709
0.67065341
0.6710089
0.67139397
0.67181158
0.67226271
0.67274668
0.67326244
0.67380923
0.67438598
0.67499193
0.6756247
0.67628191
0.67696747
0.67768522
0.67843412
0.67921247
0.68001918
0.68085286
0.6817119
0.68259529
0.66956144
0.66960687
0.66969311
0.66980291
0.66997124
0.67018101
0.67043088
0.67071998
0.67104347
0.67139614
0.67177815
0.67219234
0.67263969
0.67311938
0.67363025
0.67417187
0.67474319
0.67534346
0.67597012
0.67662105
0.67729963
0.67800941
0.67874972
0.67951929
0.68031682
0.6811408
0.68198999
0.68286313
0.66996921
0.67001389
0.67009928
0.67020812
0.67037463
0.67058213
0.67082951
0.67111582
0.67143646
0.67178632
0.67216532
0.67257615
0.67301963
0.67349482
0.67400088
0.6745374
0.67510334
0.67569788
0.67631847
0.67696322
0.67763484
0.6783366
0.67906842
0.67982929
0.68061769
0.68143203
0.68227142
0.68313438
0.67038018
0.67042411
0.67050865
0.67061645
0.6707811
0.67098632
0.67123116
0.67151466
0.67183246
0.67217954
0.67255559
0.6729629
0.67340231
0.67387309
0.67437444
0.67490596
0.6754665
0.67605517
0.67666981
0.67730851
0.67797319
0.67866691
0.67939042
0.6801426
0.68092183
0.68172671
0.68255634
0.68340915
0.67079428
0.67083746
0.67092113
0.67102789
0.67119068
0.67139361
0.6716359
0.67191662
0.6722316
0.67257594
0.6729488
0.67335247
0.67378786
0.6742543
0.67475105
0.67527754
0.67583255
0.67641538
0.67702413
0.67765678
0.67831445
0.67900027
0.67971558
0.68045911
0.68122918
0.6820247
0.68284456
0.68368722
0.67121148
0.67125392
0.67133672
0.67144246
0.6716034
0.67180405
0.6720438
0.67232175
0.67263391
0.67297523
0.67334483
0.67374487
0.67417628
0.67463844
0.67513059
0.67565195
0.6762014
0.67677842
0.6773813
0.6780079
0.67865852
0.67933656
0.68004369
0.68077857
0.68153959
0.68232585
0.68313603
0.68396861
0.67163181