/*--------------------------------*- C++ -*----------------------------------*\
  =========                 |
  \\      /  F ield         | OpenFOAM: The Open Source CFD Toolbox
   \\    /   O peration     | Website:  https://openfoam.org
    \\  /    A nd           | Version:  7
     \\/     M anipulation  |
\*---------------------------------------------------------------------------*/
FoamFile
{
    version     2.0;
    format      ascii;
    class       volScalarField;
    location    "50000";
    object      YO2;
}
// * * * * * * * * * * * * * * * * * * * * * * * * * * * * * * * * * * * * * //

dimensions      [0 0 0 0 0 0 0];

internalField   nonuniform List<scalar> 
113400
(
9.4868729e-23
9.4868729e-23
9.4868729e-23
9.4868729e-23
0.018935769
0.024817164
0.033574481
0.047421831
0.070150454
0.11049666
0.12208504
0.11817087
0.10105227
0.014187306
0.18846338
0.18693546
0.18466388
0.18070173
0.17766084
0.17307061
0.16806547
0.16129594
0.15477439
0.15807559
0.16234055
0.18108322
0.20682861
0.20826066
0.0043266142
0.0081248133
0.014310583
0.021295051
0.032791996
0.048397672
0.068424612
0.094615164
0.095354555
0.09834128
0.098826261
0.065644419
0.0550351
0.15259285
0.18470028
0.18223408
0.17926796
0.17458131
0.17012368
0.16473305
0.1577819
0.14985866
0.14065293
0.13325615
0.1272278
0.12137308
0.1137877
0.10445609
0.0046725607
0.011208804
0.022260194
0.036075781
0.052934938
0.07444633
0.088511331
0.087623012
0.087003178
0.081163549
0.069966801
0.021031343
0.11525314
0.18216743
0.182269
0.18038016
0.17584752
0.17221787
0.16634149
0.16037173
0.15287162
0.1445869
0.13580073
0.12668394
0.11805366
0.10950656
0.10079317
0.092183227
0.0053266103
0.014355709
0.029518913
0.049027042
0.069906335
0.081187348
0.083551324
0.080866631
0.077901465
0.072412206
0.034615089
0.080305877
0.1666619
0.18311156
0.18025054
0.17800526
0.17244726
0.16841587
0.16238819
0.15616726
0.14848603
0.14008083
0.1319395
0.12338406
0.11467974
0.10619132
0.097971869
0.090118196
0.0057054615
0.016550638
0.034153658
0.053991201
0.065742863
0.074601978
0.073133359
0.07241087
0.068729685
0.04878283
0.041266352
0.11617674
0.18145761
0.18150241
0.17901079
0.17539606
0.17041617
0.16547109
0.15923871
0.15293385
0.14585746
0.13768001
0.12950253
0.12151998
0.11361012
0.10582297
0.098215924
0.090874266
0.0054006975
0.016470162
0.033992332
0.0434695
0.058154732
0.060052042
0.065491433
0.063282349
0.055990342
0.022275936
0.073852496
0.15014356
0.18227944
0.18016849
0.17841012
0.17292914
0.16859342
0.16282248
0.15648436
0.15023465
0.14340249
0.13588029
0.12799112
0.12014666
0.11241082
0.10488765
0.097542526
0.090437226
0.0043884969
0.012576905
0.025103328
0.038500265
0.045929654
0.054890368
0.055858135
0.051519612
0.039318439
0.036806699
0.093873499
0.17981832
0.18137165
0.17878099
0.17668447
0.17065393
0.16677353
0.16058704
0.15422098
0.14786444
0.1412598
0.13452756
0.12707375
0.11950965
0.11203135
0.10467057
0.097472772
0.090483479
0.0031502083
0.0095745737
0.014911715
0.030117536
0.040718517
0.04475065
0.045434228
0.045005795
0.019018502
0.063278779
0.11664244
0.17911778
0.17985673
0.17758265
0.17462663
0.16868166
0.16492471
0.15855512
0.1522321
0.14580687
0.13949595
0.13275796
0.12613289
0.11898977
0.1117319
0.10457166
0.097553019
0.090709728
0.0010364185
0.003442678
0.012953284
0.023038953
0.031846074
0.036975074
0.038001026
0.026373197
0.029365547
0.083901829
0.14820947
0.17959956
0.17853682
0.17657946
0.17258441
0.16691993
0.16298949
0.15665543
0.15041682
0.14399406
0.1377145
0.13128698
0.12468379
0.11817943
0.11143828
0.10445234
0.097576743
0.090860687
0.00065231797
0.0017793136
0.0053772313
0.017811788
0.025694539
0.02812277
0.029103001
0.015963897
0.04729247
0.092782666
0.17462087
0.17938516
0.17715249
0.17590179
0.17068658
0.16524619
0.16131012
0.15502769
0.1488341
0.14250097
0.13621081
0.13005324
0.1235827
0.11711266
0.1107294
0.10438089
0.097632093
0.09101583
4.060481e-05
0.00016808662
0.0057191908
0.01297554
0.017717976
0.023107684
0.01736276
0.018274376
0.064550166
0.1076787
0.17552374
0.17778185
0.17576084
0.17448665
0.16888111
0.16362059
0.15978025
0.1535664
0.14741168
0.14120156
0.13493753
0.12876932
0.12268596
0.11625918
0.10991812
0.1036601
0.097504495
0.09117172
2.6045272e-05
0.00048059108
0.0026486877
0.0079277559
0.015110585
0.01247982
0.011212665
0.032459646
0.078660179
0.13479838
0.17528157
0.17628251
0.17440056
0.17270659
0.16711286
0.16199165
0.15823236
0.15217767
0.14607781
0.1399994
0.13377957
0.12763479
0.12157426
0.11551161
0.10921299
0.10299722
0.096867459
0.090837247
2.0161437e-07
5.0108501e-05
0.0014272822
0.0068054336
0.0062460188
0.010786242
0.0044031905
0.045979502
0.086957397
0.15727099
0.17556845
0.17496999
0.17319396
0.17098309
0.16543286
0.16040676
0.15661156
0.15090678
0.14487329
0.13888496
0.13276194
0.12665442
0.1206111
0.1146477
0.10863224
0.10245489
0.096361412
0.090359317
1.5396382e-07
4.6511151e-05
0.0013144675
0.0018595739
0.0059243697
0.0061157158
0.017695985
0.05582492
0.097633876
0.17136102
0.1754332
0.17375192
0.17211874
0.16935008
0.16385977
0.15889632
0.1550604
0.14974377
0.14378307
0.13784544
0.13186324
0.12579994
0.11978704
0.11383746
0.10796449
0.10201718
0.095958235
0.089988069
7.2779164e-08
1.8469956e-05
0.00012515957
0.001658712
0.0041201336
0.00095939809
0.027662716
0.066336908
0.11127986
0.17010995
0.17390765
0.17236153
0.1709911
0.16782037
0.16240353
0.15747929
0.15360467
0.148687
0.14280312
0.13692503
0.13107843
0.1250642
0.11908873
0.11316605
0.10730439
0.10151601
0.095660847
0.089719829
3.9001808e-12
4.1391987e-08
0.00011466828
0.0012380282
0.001533459
0.00064446692
0.037297394
0.075543514
0.12717782
0.16941461
0.17241109
0.17093304
0.16979646
0.16631616
0.1609782
0.15606912
0.15216611
0.14766984
0.14186825
0.13606046
0.13026908
0.12439336
0.1184626
0.11257684
0.10674199
0.10096909
0.095262638
0.089523973
2.9482939e-12
3.135349e-08
8.1259355e-05
0.00054497709
0.00031949272
0.0097978106
0.045635733
0.085875097
0.14260169
0.16918293
0.17102126
0.16954171
0.16857106
0.16483912
0.1595826
0.15467477
0.15074957
0.14667943
0.14096168
0.13522901
0.12949376
0.12376136
0.11788164
0.11204097
0.10624193
0.10049824
0.094810572
0.089183734
1.7807087e-12
1.7248182e-08
2.757152e-05
3.7202644e-05
0.00020380712
0.015594403
0.052918219
0.094005721
0.15657872
0.1694116
0.16980233
0.16819625
0.1673286
0.16345604
0.15827078
0.15333995
0.14940426
0.14575767
0.14012096
0.13446405
0.12879005
0.12313451
0.11736955
0.11157709
0.10581915
0.10011002
0.094448033
0.088852771
5.0299405e-13
1.5972103e-09
1.302025e-07
2.5097933e-05
0.00011545705
0.019816007
0.057757375
0.099248091
0.16402932
0.16976207
0.1685586
0.16686034
0.16611394
0.16220201
0.1570934
0.15211634
0.14818177
0.14460444
0.13938898
0.13380366
0.12819624
0.12259216
0.11696381
0.11122062
0.10550642
0.09983448
0.094200766
0.088641237
1.0350269e-18
1.621556e-11
9.2504038e-08
1.4443023e-05
5.5532659e-05
0.023899037
0.061880961
0.10501827
0.16273005
0.16852975
0.16725471
0.16553803
0.16486793
0.16101686
0.15599176
0.1509534
0.14703655
0.14340484
0.1387335
0.13321665
0.12767815
0.12213003
0.11658306
0.11094361
0.10527588
0.09964472
0.09404442
0.088524232
1.9564088e-18
1.9909353e-10
5.9278354e-08
6.6738045e-06
1.7949044e-05
0.027597842
0.065979881
0.11269639
0.16167785
0.16702556
0.16590394
0.16419496
0.16359506
0.15985725
0.154917
0.14980888
0.1459185
0.14224701
0.13810924
0.13266081
0.12719289
0.12170441
0.11620963
0.1107054
0.10508768
0.099499949
0.093946079
0.088462882
3.0423641e-18
2.9657089e-10
3.3652892e-08
2.0113984e-06
3.7843249e-08
0.030719596
0.069113062
0.12000869
0.16073907
0.16552765
0.16450816
0.16283521
0.1623084
0.15872544
0.15386661
0.14877962
0.14482572
0.14112378
0.13750494
0.13212531
0.1267303
0.12130408
0.11586643
0.11044027
0.10493026
0.099388064
0.093884634
0.088442576
4.2754973e-18
3.2684425e-10
1.5585854e-08
2.8196829e-07
3.2284467e-08
0.033694874
0.071977199
0.12633774
0.15980661
0.16403422
0.16305689
0.16147067
0.16099352
0.15761169
0.15283086
0.14782898
0.14372928
0.14002047
0.13660587
0.13159599
0.1262718
0.12091164
0.11553582
0.11016505
0.10478761
0.099293458
0.093844313
0.088446979
5.6635315e-18
3.0385465e-10
4.21206e-09
9.3125418e-09
2.7620734e-08
0.03666526
0.07489708
0.13194416
0.1587909
0.16251008
0.1616029
0.16009981
0.15964094
0.1565093
0.15180804
0.14688856
0.14263983
0.13894171
0.13547756
0.13107555
0.12581701
0.12052549
0.11521166
0.10990031
0.10458833
0.099208952
0.093815524
0.088465667
7.2348018e-18
2.4936121e-10
2.3983727e-09
8.5742034e-09
0.0018874952
0.03939486
0.078009794
0.13708636
0.15775212
0.16096
0.16013077
0.15870729
0.15824747
0.15541207
0.15079066
0.14595585
0.14156145
0.13788431
0.13438785
0.13056461
0.12536949
0.12014601
0.11489386
0.10964355
0.10438661
0.099126319
0.093794747
0.088494247
1.2695431e-17
2.6701361e-10
2.2814719e-09
7.7006685e-09
0.0040310701
0.04175204
0.081416446
0.14138053
0.15653553
0.15939657
0.15866543
0.15731825
0.15684277
0.15432195
0.14977831
0.14502793
0.14048885
0.13683763
0.1333157
0.1300558
0.12492483
0.11977177
0.11458288
0.10939533
0.10419608
0.098988125
0.093783648
0.088532904
1.9577445e-17
2.7270797e-10
2.123593e-09
6.7752525e-09
0.005580624
0.043703714
0.0844414
0.14483332
0.1551783
0.15781652
0.15718767
0.15590336
0.15542343
0.15324775
0.14877918
0.14410945
0.13942428
0.13579583
0.13227537
0.12897389
0.12448389
0.1193944
0.11427179
0.10914967
0.10400944
0.098860154
0.093751649
0.088577489
2.7000125e-17
2.6847784e-10
1.9447713e-09
5.8601087e-09
0.0068497704
0.045599724
0.086707483
0.1461797
0.15366652
0.15622362
0.1556913
0.15445344
0.15397624
0.15219243
0.14779674
0.14320454
0.13844088
0.13477766
0.13127106
0.12793009
0.12405048
0.11901986
0.11396053
0.10890273
0.10382132
0.098732043
0.093677684
0.088620505
3.4845428e-17
2.5608658e-10
1.7439704e-09
4.9569415e-09
0.0078683149
0.047003122
0.088263806
0.14484251
0.15202179
0.15460612
0.15418283
0.15298873
0.15250879
0.15114924
0.14682517
0.14230568
0.13762677
0.13377159
0.13028977
0.12691258
0.12361603
0.11864364
0.11364975
0.1086547
0.10363277
0.098604269
0.093606194
0.088619707
4.304424e-17
2.3747068e-10
1.5293276e-09
4.0787854e-09
0.0088839355
0.048075671
0.089125798
0.1427275
0.1503681
0.15296344
0.1526522
0.15151201
0.15101967
0.15010536
0.14585359
0.14140677
0.13680783
0.13276427
0.12930553
0.12591633
0.12275015
0.11825898
0.11332546
0.10839495
0.10343473
0.098468735
0.093529343
0.088595807
5.1580235e-17
2.143214e-10
1.3058778e-09
3.2326757e-09
0.0096305355
0.048566811
0.089481041
0.14060152
0.14869594
0.15129039
0.15108519
0.15001002
0.14951372
0.14906198
0.14487983
0.1405109
0.13598766
0.13176558
0.12832955
0.12495104
0.12174672
0.11787361
0.11299379
0.10812631
0.10322745
0.098323868
0.093443384
0.08856421
6.0382655e-17
1.8738661e-10
1.0756756e-09
2.4122008e-09
0.010063051
0.048604768
0.089484629
0.13845497
0.14698578
0.14959889
0.14949341
0.14848026
0.14798061
0.14801545
0.14390119
0.13960887
0.13516243
0.13076576
0.12735963
0.12400223
0.12077048
0.11748559
0.11265754
0.10785253
0.10301485
0.09817349
0.093352106
0.088527742
6.939308e-17
1.5748104e-10
8.4144498e-10
1.6432914e-09
0.010230457
0.048430519
0.089311751
0.13631819
0.14520375
0.14786888
0.14788211
0.14693878
0.14643147
0.14693709
0.14291418
0.13869891
0.13432969
0.12979798
0.12639062
0.12305464
0.11981368
0.11677694
0.11231402
0.10756696
0.10279264
0.098014586
0.093253302
0.088484625
7.8545312e-17
1.2531569e-10
6.2523407e-10
1.51219e-09
0.010227925
0.048123709
0.088966161
0.13417335
0.1433399
0.1460957
0.14624758
0.14535958
0.14485281
0.1452894
0.14192176
0.13778032
0.13348366
0.12903745
0.12541338
0.12211165
0.11888085
0.1158163
0.11196632
0.10727318
0.10255923
0.097844404
0.093143568
0.088431104
9.2116505e-17
1.0486661e-10
5.7878208e-10
1.3824452e-09
0.010117023
0.047732625
0.088575384
0.13199183
0.14135834
0.14429166
0.14456901
0.14375456
0.14326013
0.14364922
0.14092329
0.13685246
0.13262327
0.12826072
0.12442284
0.12116572
0.1179553
0.11487638
0.11160962
0.10696842
0.10231411
0.097661935
0.093021602
0.088365673
1.2199709e-16
9.7336099e-11
5.3119127e-10
1.2553666e-09
0.0099174003
0.047277397
0.088170072
0.12976493
0.13922212
0.14246133
0.14281777
0.14213864
0.14166765
0.14200472
0.13991619
0.13591236
0.13174746
0.12746643
0.12342091
0.12020786
0.11701842
0.11394102
0.11100981
0.10664684
0.1020495
0.097461559
0.092883082
0.088284835
1.5245432e-16
8.9349837e-11
4.8302474e-10
1.1293242e-09
0.009644441
0.0468645
0.087493468
0.12746244
0.13699337
0.14062093
0.1410513
0.14051121
0.14007289
0.14035091
0.13890073
0.13496025
0.1308595
0.1266574
0.12241054
0.11924171
0.11607067
0.11301672
0.11006239
0.10630881
0.10176127
0.097237796
0.092721958
0.0881824
1.8342022e-16
8.1078135e-11
4.3467134e-10
1.0045908e-09
0.0093005056
0.04646443
0.086551171
0.12506453
0.134689
0.13877237
0.13925703
0.13885312
0.13845627
0.13868624
0.13787543
0.13399867
0.12996323
0.12583642
0.12154226
0.11827491
0.11513107
0.11210408
0.10913699
0.10595541
0.10145517
0.096993672
0.092539538
0.088058473
2.1482298e-16
7.2647514e-11
3.8645718e-10
8.8134369e-10
0.0089707123
0.045808645
0.084945399
0.12257799
0.13234971
0.13691075
0.13744483
0.13717362
0.13682102
0.13701137
0.13684083
0.13302436
0.12906168
0.12500161
0.12077863
0.11730571
0.11419666
0.11119527
0.10822286
0.10545381
0.10113427
0.096729838
0.092338234
0.087916109
2.4646908e-16
6.4070636e-11
3.3829458e-10
7.5950586e-10
0.0084651769
0.044799369
0.082984144
0.12005009
0.13000261
0.13503123
0.13561056
0.1354813
0.13518366
0.13533516
0.13579726
0.13203596
0.12814675
0.12414908
0.12000437
0.11632388
0.11326063
0.11028037
0.10733128
0.10454546
0.10080197
0.096444914
0.092116495
0.08775584
2.7822063e-16
5.5459091e-11
2.9055436e-10
6.3971303e-10
0.0077860149
0.043525691
0.08090886
0.11750692
0.12765065
0.13312783
0.13374061
0.13377113
0.13352462
0.13362677
0.13463408
0.13103665
0.12722136
0.12328396
0.11921998
0.11533625
0.11232557
0.10937255
0.10645951
0.10367003
0.10046362
0.09614996
0.091881799
0.08758066
3.0986838e-16
4.688689e-11
2.4343099e-10
5.3327894e-10
0.0069568861
0.042132407
0.078803726
0.11495401
0.12526937
0.13120531
0.13183955
0.13203391
0.13182223
0.13190332
0.13283477
0.13002415
0.12627794
0.12240247
0.11842079
0.11434347
0.1113895
0.10846563
0.10559215
0.10280167
0.10011056
0.09583959
0.091632453
0.087390227
3.4126885e-16
3.8446773e-11
2.069476e-10
4.9003847e-10
0.0060697776
0.040718342
0.076730877
0.11242011
0.1228214
0.12925353
0.12991057
0.13029054
0.13011544
0.13019064
0.13107483
0.12899933
0.12531778
0.12150178
0.11759611
0.11357871
0.11043254
0.10754914
0.10470936
0.10194129
0.099307167
0.095511152
0.091357155
0.087175487
3.9289096e-16
3.4169961e-11
1.8944399e-10
4.4760176e-10
0.0051723687
0.03931249
0.074719953
0.10987378
0.12032761
0.12727556
0.12796634
0.12853898
0.12840998
0.1284919
0.12933219
0.12796403
0.12434035
0.12058146
0.11674767
0.11279645
0.10945238
0.10661666
0.10381722
0.10108364
0.09846024
0.095166047
0.091061121
0.086937497
4.5940975e-16
3.0838676e-11
1.724268e-10
4.0632654e-10
0.0043150686
0.037971951
0.072889953
0.10730258
0.117765
0.12527923
0.12602498
0.12677378
0.12668633
0.12680777
0.12758902
0.12691656
0.12334655
0.11964422
0.11588034
0.11199343
0.10845879
0.10567277
0.10291804
0.10022232
0.097615179
0.094800875
0.090744614
0.086677605
5.2628532e-16
2.7656373e-11
1.5597098e-10
3.6626212e-10
0.0034932542
0.036714302
0.070996579
0.10470515
0.11513095
0.12326795
0.12407165
0.12499358
0.12494078
0.12510564
0.12583118
0.12585576
0.12233804
0.11869539
0.11499784
0.11117346
0.10745764
0.10472083
0.10201137
0.09935169
0.096767731
0.094305942
0.090406499
0.08639496
5.9358895e-16
2.4618375e-11
1.4003331e-10
3.2728823e-10
0.0026956962
0.035504816
0.068997933
0.10206725
0.11245892
0.12125069
0.12210346
0.12320378
0.12318245
0.12339905
0.12407312
0.12478224
0.12131169
0.11773953
0.11409876
0.11033661
0.10651736
0.10375996
0.10109716
0.098467981
0.095926748
0.093469031
0.090048699
0.086087213
6.6151512e-16
2.1740547e-11
1.246518e-10
2.8945533e-10
0.0019684589
0.034192138
0.06675329
0.099369619
0.10979605
0.11922713
0.12011585
0.12139705
0.12140852
0.12168281
0.12229652
0.12369345
0.12026951
0.11677034
0.11318651
0.10948427
0.10574217
0.10279265
0.10018853
0.097590543
0.095097313
0.09265044
0.089677711
0.085763159
7.2973129e-16
1.8994091e-11
1.0972688e-10
2.5261431e-10
0.0011628268
0.032693011
0.064376919
0.096651059
0.1071334
0.1171925
0.11811614
0.11956987
0.11961211
0.11992482
0.12051579
0.12191155
0.11921203
0.1157803
0.11225371
0.10862234
0.10494884
0.10181804
0.099278054
0.09671412
0.094271775
0.091837815
0.089291951
0.085423989
7.9794982e-16
1.6366386e-11
9.5291934e-11
2.1670103e-10
0.00031540983
0.031133485
0.062016756
0.093931357
0.10449986
0.11513554
0.11610439
0.11772248
0.11781238
0.11816387
0.11875138
0.12010469
0.1181408
0.11477181
0.11129873
0.10774175
0.10413263
0.10083221
0.098356797
0.095829262
0.093438006
0.091020638
0.088825864
0.085064157
8.663184e-16
1.3876799e-11
8.1864495e-11
1.955468e-10
3.3672727e-10
0.029572732
0.059740384
0.091216578
0.10186466
0.1130649
0.11407414
0.11573229
0.11600715
0.11640673
0.11700029
0.11832522
0.11705609
0.11374579
0.1103232
0.10683911
0.10329116
0.099835758
0.097415052
0.094935023
0.09258307
0.090209976
0.088023842
0.084685816
9.5442396e-16
1.2177435e-11
7.5251865e-11
1.7912377e-10
3.0832366e-10
0.028061805
0.057608036
0.088558311
0.099222119
0.11100508
0.11203639
0.11375
0.1141957
0.11465036
0.11525329
0.11655539
0.11596665
0.11270284
0.10933129
0.10591792
0.10242847
0.098842393
0.096457747
0.094031381
0.091715741
0.089394494
0.087223346
0.084288387
1.0689048e-15
1.0933254e-11
6.8796244e-11
1.6314501e-10
2.8066769e-10
0.026608224
0.055593963
0.085898917
0.096585618
0.10892679
0.10999297
0.11177015
0.11237953
0.11288659
0.11350106
0.11478433
0.11486064
0.11164314
0.10832616
0.10498087
0.10154378
0.098035554
0.095483792
0.093122263
0.090841117
0.088573274
0.086417735
0.08387173
1.1833997e-15
9.7517922e-12
6.2547221e-11
1.4775804e-10
2.5391667e-10
0.025228686
0.053712995
0.083236635
0.093972472
0.1068372
0.10795546
0.10978724
0.11056971
0.11111657
0.11178183
0.11301961
0.11374127
0.11056584
0.10730543
0.10402443
0.10063695
0.097204696
0.094489375
0.092197177
0.089951786
0.087739069
0.085599078
0.083433254
1.2988957e-15
8.6528362e-12
5.6555113e-11
1.3307525e-10
2.2814927e-10
0.023977469
0.051791492
0.080676943
0.091322106
0.10474568
0.10591949
0.10779467
0.10875904
0.10933862
0.11006533
0.11125954
0.11260804
0.10947185
0.10628266
0.10305048
0.099713715
0.096357171
0.093481131
0.091258169
0.089047126
0.086887749
0.084772872
0.082784516
1.415746e-15
7.6348387e-12
5.0807088e-11
1.1902366e-10
2.0322835e-10
0.022702634
0.049793968
0.078057903
0.088683857
0.10248606
0.10387699
0.1057998
0.10693642
0.10755306
0.10832921
0.10947752
0.11140894
0.10836178
0.10524388
0.102062
0.098777429
0.095497689
0.0924661
0.090312578
0.088135204
0.086029017
0.083948958
0.081988484
1.5336271e-15
6.684268e-12
4.5264556e-11
1.0546175e-10
1.7896567e-10
0.021381429
0.047749826
0.075415528
0.086111223
0.099887862
0.10182214
0.10379976
0.1050911
0.10575575
0.10656819
0.10770843
0.10959461
0.10723602
0.10418402
0.10105236
0.097837936
0.094621239
0.09144404
0.08936035
0.087216532
0.085165361
0.083121554
0.081192613
1.6523424e-15
5.7905492e-12
3.9897556e-11
9.231859e-11
1.6124649e-10
0.02004838
0.045725985
0.072715336
0.083598764
0.097354837
0.099774259
0.10178897
0.10323907
0.10395234
0.1048184
0.10596315
0.10783496
0.10609767
0.10310706
0.1000212
0.096881903
0.093722151
0.090436526
0.088396658
0.086285445
0.084289179
0.082280251
0.080383723
1.7723884e-15
4.9548267e-12
3.5068205e-11
8.3954436e-11
1.4923025e-10
0.018762021
0.043786542
0.069909907
0.081158111
0.094848911
0.097755957
0.099776462
0.10139564
0.10214658
0.10307911
0.10423127
0.10609215
0.10496348
0.102014
0.09897504
0.09590978
0.092798656
0.089589941
0.087413904
0.085348894
0.083404482
0.081426805
0.079561371
1.9269837e-15
4.4111054e-12
3.2396746e-11
7.7427394e-11
1.376097e-10
0.017554388
0.041939247
0.067244677
0.078730227
0.092357851
0.095725347
0.09776844
0.099553061
0.10034293
0.10134037
0.1024992
0.10435013
0.10381097
0.1009028
0.097910753
0.094918899
0.091853154
0.088723834
0.086408073
0.084405372
0.082504608
0.08055919
0.078734706
2.1066234e-15
3.9742615e-12
2.9831988e-11
7.1161807e-11
1.2638759e-10
0.016432237
0.040189502
0.064706167
0.076329013
0.08989226
0.093690394
0.095776072
0.097701107
0.098559591
0.099597509
0.10077969
0.10262144
0.10264207
0.099773909
0.096830159
0.093909014
0.090886678
0.087836392
0.085380784
0.083450944
0.08158262
0.079687866
0.077898247
2.2911485e-15
3.5758612e-12
2.7381362e-11
6.516448e-11
1.1557435e-10
0.01541341
0.038575542
0.062199666
0.074057211
0.087430019
0.091660327
0.093791584
0.095842807
0.096774347
0.09785408
0.099056839
0.10090265
0.10145726
0.098626829
0.095756537
0.092880223
0.089903022
0.086930436
0.084336978
0.082479232
0.080641453
0.078802749
0.077044701
2.4820118e-15
3.2149981e-12
2.503983e-11
5.941581e-11
1.0512764e-10
0.014500041
0.036963533
0.059824231
0.071760254
0.085027327
0.089636487
0.09180426
0.094004869
0.094982096
0.096113751
0.097326055
0.099175756
0.10025452
0.097461784
0.094665228
0.091833189
0.088901976
0.08600761
0.083279544
0.081493541
0.079684747
0.077902344
0.076174714
2.6797139e-15
2.8852415e-12
2.2788064e-11
5.386697e-11
9.4970725e-11
0.013611043
0.035387418
0.05745922
0.069474702
0.082678763
0.087616337
0.089812391
0.092174162
0.093181396
0.094376016
0.095598638
0.097452899
0.099036932
0.096279795
0.093557116
0.090766604
0.087900944
0.085066377
0.082210946
0.080495302
0.078712772
0.076986015
0.075286499
2.8841023e-15
2.5794028e-12
2.0606432e-11
4.8473669e-11
8.4995044e-11
0.012739524
0.033834915
0.055113629
0.06722205
0.080397501
0.085588188
0.087858688
0.090335501
0.091390011
0.09262915
0.093906875
0.09572834
0.097805049
0.095095373
0.092433871
0.089683288
0.086894435
0.084106339
0.08119857
0.079484782
0.077728288
0.076054552
0.074378059
3.0943978e-15
2.2907133e-12
1.8477463e-11
4.3311615e-11
7.837864e-11
0.011891072
0.032291866
0.052818303
0.064998947
0.078169964
0.08355301
0.08591844
0.088485609
0.089595105
0.090869118
0.092212895
0.093994808
0.096452993
0.093910995
0.091293515
0.08858569
0.085874262
0.083127159
0.080290482
0.078458317
0.076737572
0.075115246
0.073458983
3.3159096e-15
2.0375488e-12
1.6874221e-11
4.0389351e-11
7.3026665e-11
0.011073834
0.030791285
0.050583877
0.062828623
0.075932444
0.081589937
0.083962831
0.086619154
0.087788839
0.089115623
0.09049857
0.092278806
0.094713328
0.092710995
0.0901327
0.087469252
0.084836217
0.082127892
0.079373822
0.07741229
0.075736395
0.074166414
0.072531036
3.62675e-15
1.8747945e-12
1.5702995e-11
3.753131e-11
6.7781159e-11
0.010296057
0.029328267
0.048398101
0.060647499
0.073713764
0.079605688
0.082002628
0.08470136
0.085972272
0.087377085
0.088785126
0.090581495
0.093010857
0.091498978
0.088956012
0.086355699
0.083780256
0.081111378
0.078439531
0.076344696
0.074741666
0.073200197
0.071592712
3.947081e-15
1.7219394e-12
1.4562231e-11
3.4745509e-11
6.265418e-11
0.0095678943
0.027916465
0.046254992
0.058503084
0.071528854
0.077612404
0.080047847
0.082783848
0.084170757
0.085634063
0.087077205
0.088879662
0.09131635
0.090271557
0.087762958
0.085240995
0.082706712
0.08007851
0.077488634
0.075260603
0.0737307
0.072213338
0.07065849
4.2792929e-15
1.5801059e-12
1.345438e-11
3.203588e-11
5.7651992e-11
0.0088989673
0.026568967
0.044118324
0.056518159
0.069338698
0.075620818
0.078099515
0.080857411
0.082399611
0.083880614
0.085372644
0.087177202
0.089619702
0.089027545
0.086552869
0.084109299
0.081615475
0.079033269
0.07652099
0.074160846
0.072703157
0.071206481
0.069707474
4.6257632e-15
1.4494745e-12
1.2379397e-11
2.9400664e-11
5.2769555e-11
0.0082960197
0.025199457
0.042243403
0.054500182
0.067195375
0.07363087
0.076145248
0.078956955
0.080617446
0.082128719
0.083659474
0.085491803
0.08792154
0.087769676
0.085336993
0.082963627
0.080505902
0.078004928
0.075535262
0.073049609
0.071662586
0.070183976
0.068740935
4.9871027e-15
1.3275141e-12
1.1330165e-11
2.6821843e-11
4.797067e-11
0.007689439
0.023985972
0.040323403
0.052499526
0.065092758
0.071644771
0.074183874
0.077091633
0.078825261
0.080379229
0.08194044
0.083806648
0.086222474
0.086494569
0.084137011
0.08180169
0.079381891
0.076961504
0.074532818
0.071980567
0.070610943
0.069150989
0.067763076
5.3620147e-15
1.2100561e-12
1.029584e-11
2.4274704e-11
4.3896657e-11
0.0071318342
0.022752185
0.038418286
0.050520304
0.063041247
0.069646339
0.0722949
0.075215474
0.077034995
0.078624246
0.080238956
0.082114108
0.084524002
0.085203848
0.082921148
0.080624249
0.07824328
0.075905128
0.073509531
0.071044031
0.069539346
0.06811125
0.066776518
5.7495446e-15
1.095887e-12
9.4070322e-12
2.254315e-11
4.1129853e-11
0.0065831309
0.021531017
0.036532198
0.048562111
0.061002007
0.067675219
0.070415802
0.073335998
0.075245229
0.076858994
0.078559262
0.080414704
0.082827744
0.083915484
0.081691628
0.079431711
0.077109351
0.074832324
0.072468803
0.070088846
0.068446488
0.06706468
0.065774258
6.3047408e-15
1.0304803e-12
8.8225447e-12
2.108638e-11
3.8398124e-11
0.0060606757
0.020335734
0.034673459
0.046637644
0.058955232
0.065785903
0.068522871
0.071461716
0.073446674
0.075111931
0.076869637
0.078714553
0.081116871
0.082639238
0.080446438
0.07822302
0.075984848
0.073742969
0.07141356
0.069119294
0.067334356
0.06602494
0.0647541
6.8986787e-15
9.6782489e-13
8.248217e-12
1.9655497e-11
3.5712052e-11
0.0055724524
0.019173392
0.032856175
0.04469058
0.057032788
0.063874125
0.066628852
0.069590063
0.071632458
0.073397435
0.075164799
0.077010784
0.079397858
0.081347321
0.07918501
0.076998396
0.074844146
0.072637499
0.070343816
0.068135304
0.066207144
0.064971029
0.063716278
7.5175972e-15
9.0870383e-13
7.6853969e-12
1.8252022e-11
3.3072428e-11
0.0051194161
0.018044476
0.031013466
0.042940662
0.055071295
0.061954675
0.064731393
0.067704434
0.069853321
0.071667284
0.073458327
0.075288627
0.077698848
0.080040765
0.077910365
0.075777398
0.073690906
0.07151555
0.069306548
0.067135637
0.065070473
0.063906749
0.062664404
8.164443e-15
8.5297169e-13
7.1336485e-12
1.6874437e-11
3.0475908e-11
0.004701761
0.016901288
0.02942797
0.041197266
0.053122995
0.060029586
0.062831328
0.065803928
0.068102628
0.069919511
0.07174339
0.073549331
0.075984121
0.078717654
0.076616901
0.074574245
0.072521387
0.070379614
0.068255334
0.066122496
0.063923737
0.062834218
0.061602326
8.8395214e-15
7.9925862e-13
6.589594e-12
1.5514962e-11
2.7907012e-11
0.0042865237
0.015927777
0.027884869
0.039448938
0.051196546
0.05810346
0.060912169
0.063989263
0.066330107
0.068166737
0.070007926
0.071821696
0.074261835
0.077109351
0.07530873
0.073352987
0.071335493
0.069229188
0.067192451
0.06509079
0.062914624
0.061744462
0.060534311
9.5402068e-15
7.4528734e-13
6.0476239e-12
1.4160917e-11
2.5741431e-11
0.0039255783
0.014963809
0.026326482
0.037697891
0.049281875
0.056161297
0.059038608
0.062166505
0.064545612
0.066407991
0.068260935
0.07010242
0.072550403
0.075365465
0.074023936
0.072116758
0.070133839
0.068096541
0.066113541
0.06404121
0.061955154
0.06063484
0.059454136
1.0310039e-14
6.9553687e-13
5.6074101e-12
1.3274976e-11
2.4204716e-11
0.0035654549
0.01400011
0.024770814
0.035953733
0.047381536
0.054223845
0.057238861
0.060333269
0.062761637
0.064638485
0.06655969
0.068411101
0.07084634
0.073624378
0.072746476
0.070865702
0.068915978
0.066969394
0.065017814
0.062976373
0.060981203
0.059504967
0.058395994
1.1487518e-14
6.6483932e-13
5.2793066e-12
1.246382e-11
2.2677175e-11
0.0032196401
0.013049315
0.023226419
0.034229503
0.045452045
0.05243576
0.055417311
0.058498983
0.060972463
0.062856621
0.064871516
0.066717087
0.069132492
0.071887852
0.071454745
0.069600602
0.067683369
0.065827621
0.063906127
0.061903822
0.059992069
0.058357278
0.057324212
1.2708093e-14
6.3436956e-13
4.9538674e-12
1.1660993e-11
2.1166695e-11
0.0028941539
0.012116707
0.021700955
0.032473926
0.04368963
0.050622774
0.053591669
0.056666242
0.059164835
0.061156701
0.063167384
0.065025713
0.06740402
0.070173595
0.070149399
0.068321557
0.06647918
0.064672923
0.062779501
0.060866248
0.058988157
0.057199849
0.056243171
1.3977957e-14
6.0469581e-13
4.6323279e-12
1.0868515e-11
1.9675977e-11
0.0025912037
0.01120435
0.020153651
0.030959761
0.041894245
0.048799434
0.051758129
0.054820065
0.057376465
0.059448848
0.061450814
0.063323329
0.06567149
0.068445642
0.06882959
0.067026013
0.065279864
0.063502648
0.06163848
0.05981507
0.057971151
0.056032478
0.055154219
1.5301086e-14
5.7569001e-13
4.3144097e-12
1.0085554e-11
1.8203027e-11
0.00230756
0.010305215
0.018944812
0.029434041
0.040105058
0.046969179
0.049921735
0.052956082
0.05566752
0.057724757
0.059733589
0.061603499
0.063978102
0.0667012
0.067497349
0.065724329
0.064067841
0.06231989
0.060485522
0.05875438
0.056935291
0.055056378
0.054046474
1.6676881e-14
5.4649794e-13
3.9981157e-12
9.3075592e-12
1.6736411e-11
0.0020443915
0.0095907534
0.0177299
0.02790468
0.03832644
0.045135922
0.048066445
0.051209715
0.053937838
0.055996034
0.05800715
0.059895329
0.0622732
0.064955953
0.066149002
0.064469969
0.062842745
0.061123141
0.059380767
0.057679255
0.055885263
0.054099745
0.052922033
1.810103e-14
5.1603794e-13
3.6831456e-12
8.642861e-12
1.5759077e-11
0.0018121383
0.0088714668
0.016515381
0.026374449
0.036557951
0.043286179
0.04629858
0.049470585
0.052198802
0.05426449
0.056263707
0.058245441
0.060549429
0.063207307
0.064786489
0.063201236
0.061602867
0.059910804
0.05826369
0.056589576
0.054821489
0.053130987
0.051781962
2.0475626e-14
4.9903807e-13
3.4971881e-12
8.1783647e-12
1.4884763e-11
0.0015876701
0.0081604517
0.01530818
0.024849179
0.03478201
0.041501548
0.044603235
0.047718382
0.050453547
0.052517316
0.054561658
0.056579971
0.058820852
0.061437572
0.063472105
0.061918486
0.060351033
0.05869971
0.057135333
0.055486354
0.053772141
0.052149978
0.050628661
2.3343616e-14
4.8531309e-13
3.3112237e-12
7.715905e-12
1.4016151e-11
0.0013763752
0.0074629532
0.014112655
0.023320582
0.033050044
0.039846416
0.042888747
0.045961155
0.04870074
0.050752933
0.052904176