/*--------------------------------*- C++ -*----------------------------------*\
  =========                 |
  \\      /  F ield         | OpenFOAM: The Open Source CFD Toolbox
   \\    /   O peration     | Website:  https://openfoam.org
    \\  /    A nd           | Version:  7
     \\/     M anipulation  |
\*---------------------------------------------------------------------------*/
FoamFile
{
    version     2.0;
    format      ascii;
    class       volScalarField;
    location    "50000";
    object      Z;
}
// * * * * * * * * * * * * * * * * * * * * * * * * * * * * * * * * * * * * * //

dimensions      [0 0 0 0 0 0 0];

internalField   nonuniform List<scalar> 
113400
(
0.99999969
0.99999964
0.9999995
0.99999921
0.99999863
0.9999975
0.99999506
0.99998964
0.99997727
0.99994866
0.99987754
0.99969024
0.99907237
0.99651685
0.99130784
0.98538438
0.97779188
0.96843308
0.95695004
0.94284525
0.92542532
0.90377279
0.87664521
0.84321313
0.80231566
0.75320875
0.7007115
0.64851112
0.9999929
0.99999176
0.99998907
0.99998435
0.99997673
0.99996315
0.99993904
0.99989433
0.99980446
0.99960908
0.99913137
0.99779222
0.99437003
0.98914164
0.98402409
0.97630701
0.96630652
0.95379494
0.93848542
0.9200317
0.89804063
0.87225303
0.84279139
0.81037782
0.7756906
0.73989386
0.70474013
0.67186715
0.99997604
0.99997305
0.99996598
0.99995358
0.99993311
0.99989879
0.99983815
0.99972478
0.99949941
0.99902242
0.99795002
0.99529873
0.99084513
0.98586372
0.97957673
0.97087829
0.95962951
0.94557184
0.92853614
0.90850148
0.88559614
0.86001438
0.83231523
0.80327614
0.77377251
0.74468971
0.71671019
0.69022227
0.99994705
0.99994122
0.99992747
0.99990331
0.9998627
0.99979316
0.9996681
0.99943582
0.99898486
0.99805955
0.99595479
0.99214249
0.98766487
0.98212216
0.97459775
0.96467664
0.95202387
0.93666588
0.91858235
0.89791834
0.8750955
0.85067782
0.82523288
0.79935669
0.77355462
0.74825993
0.72374209
0.70008291
0.99989936
0.99988913
0.99986497
0.99982217
0.99974982
0.99962649
0.9994095
0.99901755
0.99828319
0.99679748
0.99393983
0.9897893
0.98513051
0.97898685
0.97060158
0.95972978
0.94608467
0.92996245
0.91166853
0.89148406
0.8698442
0.84714683
0.82381129
0.80026445
0.77682021
0.75368048
0.73094807
0.70863083
0.99982599
0.99980922
0.99976956
0.9996984
0.99957975
0.99938093
0.99904109
0.9984467
0.99734633
0.99514583
0.99172475
0.98752184
0.98253469
0.97574062
0.96661897
0.95490059
0.94051168
0.92405517
0.90585735
0.88626236
0.86565085
0.84432473
0.82255681
0.80060876
0.77867911
0.75688797
0.73528687
0.71387252
0.99971551
0.99968886
0.99962522
0.99951338
0.99932877
0.99902522
0.99851949
0.99763713
0.99602339
0.993233
0.98945528
0.98524357
0.97991569
0.97253896
0.96280658
0.95037967
0.93571403
0.91927241
0.90139308
0.88246055
0.8627782
0.84258911
0.8220682
0.80134573
0.78054599
0.75974628
0.7389787
0.71824287
0.99955374
0.9995132
0.99941661
0.99924891
0.99897754
0.9985392
0.99781415
0.99658562
0.99436789
0.99113465
0.98725044
0.98284971
0.97707585
0.96919071
0.95890419
0.94601475
0.93125742
0.91499561
0.89750938
0.87917385
0.86026654
0.84096003
0.8213799
0.80160916
0.7816925
0.7616766
0.74158936
0.72143717
0.99932497
0.99926567
0.99912593
0.99888723
0.99850343
0.99789123
0.99689878
0.99521778
0.99249515
0.9889888
0.98500313
0.98030153
0.97405438
0.96568398
0.95495618
0.94182503
0.9270718
0.9110679
0.89402776
0.87626443
0.85800965
0.83942051
0.82057925
0.80154694
0.78235573
0.7630099
0.74351698
0.72388928
0.99901103
0.998928
0.99873288
0.99840054
0.99787459
0.99704421
0.99571476
0.99351582
0.99043444
0.98684072
0.98277758
0.97780796
0.97113355
0.96235465
0.95127196
0.93811107
0.92349178
0.90779598
0.89119439
0.87395063
0.85625144
0.83823915
0.81998895
0.80153187
0.78289747
0.76409996
0.74512836
0.72597291
0.9985954
0.99848279
0.99822001
0.99777674
0.99707691
0.99598852
0.99427067
0.99161332
0.9883097
0.98460419
0.9804227
0.97516244
0.9681367
0.95903218
0.94777232
0.93468741
0.92028386
0.90491522
0.88873995
0.87197528
0.8547764
0.83725808
0.81950315
0.80153992
0.78337541
0.76502498
0.7464944
0.72777606
0.99806291
0.99791609
0.99757428
0.99699734
0.99609924
0.99471644
0.99256696
0.98963252
0.98623541
0.98238162
0.97797472
0.97238758
0.96503804
0.95570214
0.94436323
0.93139722
0.91725348
0.90222238
0.88645346
0.87013185
0.85338727
0.83631304
0.81898629
0.8014499
0.7837061
0.76575655
0.74760983
0.72926932
0.99739851
0.99721237
0.9967797
0.99605653
0.99493738
0.99324564
0.99070395
0.98755823
0.98410179
0.98015577
0.97554017
0.96965119
0.96200789
0.95248745
0.94117866
0.92837704
0.91451637
0.89982524
0.88443644
0.86851835
0.85218184
0.83550627
0.81856077
0.80139329
0.78401828
0.76643218
0.74863612
0.73063763
0.99658656
0.99635592
0.99582157
0.99492849
0.99355829
0.9915193
0.98870276
0.98549817
0.98191264
0.97791317
0.97314448
0.96699707
0.95909098
0.94945997
0.93823744
0.92562145
0.91204231
0.89768081
0.88264719
0.8670975
0.85113072
0.83481719
0.81821799
0.80138233
0.78433349
0.76707568
0.74960553
0.73192604
0.99562269
0.99534518
0.99470414
0.99364253
0.99204522
0.98971933
0.98676777
0.98348935
0.97979279
0.97569943
0.97075303
0.96436664
0.95628499
0.94665845
0.93554848
0.92313731
0.90981986
0.89577619
0.88108269
0.86587141
0.85024435
0.83426449
0.81798507
0.8014566
0.7847061
0.7677443
0.75057456
0.7331952
0.99451525
0.994192
0.99344899
0.9922314
0.99042107
0.98783737
0.98476627
0.98142155
0.97763904
0.97341831
0.96827671
0.96169315
0.95351781
0.94393021
0.93295636
0.92076501
0.9077063
0.89397363
0.87961275
0.86472761
0.84942354
0.83376009
0.81778636
0.8015514
0.78508574
0.76840208
0.7515097
0.7344129
0.99326418
0.99289561
0.99205184
0.99067726
0.98864849
0.98589778
0.98277706
0.97933276
0.97548791
0.97113444
0.96579638
0.95902696
0.95080001
0.9412765
0.9304513
0.91847987
0.90566749
0.89223268
0.87819141
0.86361895
0.84862457
0.83326471
0.81758583
0.80163433
0.78544374
0.76902833
0.75239921
0.73556649
0.99187846
0.99146791
0.99053276
0.98902338
0.98683265
0.98400539
0.98083299
0.97730978
0.97341953
0.96894252
0.96340858
0.95646855
0.94825546
0.9388056
0.9281207
0.91636656
0.90379234
0.89062985
0.87689148
0.86261531
0.84791211
0.83283739
0.81743651
0.80175457
0.78582559
0.76966524
0.7532862
0.73670284
0.99038034
0.98993338
0.98892053
0.9873022
0.98499002
0.98210537
0.97889418
0.97532004
0.97139977
0.9668238
0.96112049
0.95412182
0.94594192
0.93659196
0.92606444
0.91451812
0.90217493
0.88925807
0.87579755
0.86180557
0.84737632
0.83256821
0.8174271
0.80199849
0.78631509
0.77039388
0.75424887
0.73789844
0.98879487
0.98831759
0.98724111
0.98553563
0.98312715
0.9801946
0.97694656
0.97333803
0.96937333
0.96469393
0.95890751
0.95188385
0.94375822
0.93452849
0.9241776
0.91284227
0.90072745
0.88804267
0.87484148
0.86112389
0.84695941
0.83240865
0.81751696
0.80233169
0.78688489
0.77119314
0.75527203
0.73914335
0.98713788
0.98663534
0.98550641
0.98372974
0.98124265
0.97827311
0.97499136
0.97135267
0.96732267
0.96254978
0.956708
0.94969343
0.94162885
0.93252673
0.9223592
0.91123518
0.89934443
0.8868854
0.87393434
0.86048377
0.84657872
0.83228087
0.81763376
0.80268689
0.7874726
0.7720054
0.75630423
0.74039243
0.98541722
0.98489295
0.98371904
0.98188158
0.97932772
0.97632734
0.97301968
0.96936214
0.96526567
0.96041398
0.95453591
0.94755324
0.93955778
0.93058251
0.92059591
0.90968064
0.89800889
0.88576619
0.8730574
0.85986877
0.84621862
0.83216966
0.81776359
0.80305042
0.78806396
0.77281773
0.75733247
0.74163284
0.98363913
0.98309585
0.9818827
0.97999242
0.97738091
0.97435441
0.9710238
0.96735307
0.96320202
0.95828775
0.9523862
0.94543892
0.93752054
0.92867366
0.91885774
0.90814162
0.89668916
0.88466338
0.87218289
0.85924445
0.84584766
0.83204542
0.81787811
0.80339554
0.78863341
0.77360543
0.75833275
0.7428412
0.98180656
0.98124619
0.97999783
0.9780601
0.97539631
0.97234411
0.96899494
0.96531033
0.96111736
0.95616033
0.95025531
0.9433442
0.93550897
0.92679341
0.91714714
0.90662879
0.89538964
0.88357826
0.87131274
0.85860828
0.8454595
0.83189986
0.81796801
0.80371319
0.78917131
0.77435751
0.75929452
0.74400754
0.97991853
0.97934208
0.97806029
0.97607642
0.97337623
0.97030601
0.96693883
0.96324018
0.95901326
0.95402511
0.94813075
0.94126236
0.93351452
0.92493281
0.91545926
0.9051406
0.89410976
0.88250669
0.87044772
0.8579663
0.84505672
0.83173318
0.81803164
0.80400014
0.78967418
0.77507014
0.76021294
0.74512648
0.97797603
0.9773851
0.97607386
0.97405156
0.97133146
0.96824963
0.96486688
0.96114958
0.95690443
0.95190622
0.94602669
0.93920351
0.93154042
0.92309108
0.91378899
0.90366794
0.8928409
0.88144072
0.86958271
0.85731851
0.84464459
0.8315527
0.81807695
0.80426439
0.79015013
0.77575085
0.76109418
0.74620377
0.97598393
0.97538105
0.97404626
0.97199567
0.96926487
0.96617595
0.9627823
0.95904902
0.95479401
0.94980077
0.94394192
0.9371748
0.92960268
0.92127985
0.91214468
0.90221646
0.89158833
0.88038646
0.86872811
0.8566661
0.84421117
0.83134948
0.81809671
0.80449979
0.79059367
0.77639631
0.76193664
0.74723792
0.97394745
0.97333503
0.97198193
0.96991052
0.96717359
0.96408141
0.96067636
0.95693904
0.95268988
0.94770864
0.94187818
0.93517749
0.92770401
0.91950568
0.9105324
0.9007904
0.89035573
0.87934557
0.8678783
0.8560083
0.84375936
0.83111858
0.81808235
0.80469617
0.79099438
0.77699577
0.76272946
0.74821857
0.97187132
0.97125162
0.96988506
0.96779973
0.96506185
0.96196905
0.95855962
0.9548225
0.95058577
0.94562652
0.93983227
0.93320198
0.92582864
0.9177546
0.90893874
0.89937356
0.88912844
0.87830714
0.8670227
0.85533764
0.84328771
0.83086283
0.81803826
0.80485842
0.79135703
0.77755358
0.76347714
0.74914979
0.96975907
0.9691341
0.96775823
0.96566441
0.96292966
0.95983584
0.95642978
0.952697
0.94847229
0.94353811
0.93778759
0.9312315
0.92395424
0.91600626
0.90734869
0.89795261
0.88788959
0.87725373
0.86614839
0.85464625
0.84278337
0.83056191
0.81794775
0.80497201
0.79166859
0.77805766
0.76416821
0.75002095
0.96761206
0.96698343
0.96560159
0.96350368
0.96077403
0.95768438
0.95428752
0.95056125
0.94635008
0.9414422
0.93574439
0.92927045
0.922087
0.91426375
0.90576158
0.89653429
0.88665186
0.87619659
0.86526709
0.85394198
0.84225487
0.83022301
0.81781276
0.80503617
0.79192684
0.77850509
0.76479967
0.75082997
0.96543219
0.96480144
0.9634168
0.96131915
0.95859731
0.95551687
0.95213293
0.94841529
0.94421982
0.93934045
0.93369794
0.92731002
0.92022056
0.91252115
0.90417306
0.8951135
0.88541063
0.87513299
0.86437571
0.85322241
0.84170466
0.82985462
0.81764256
0.80505999
0.79214034
0.77890381
0.76537873
0.75158326
0.96322146
0.96259002
0.96120551
0.95911199
0.95640166
0.95333372
0.9499643
0.94625678
0.94207608
0.93723227
0.93165169
0.92534769
0.91835065
0.91077169
0.9025781
0.8936853
0.88415953
0.87405688
0.86346796
0.85248245
0.84113178
0.82945404
0.81743049
0.80503977
0.79230697
0.77925264
0.76590479
0.75228053
0.96098187
0.96035109
0.95896948
0.95688387
0.95418807
0.95113471
0.94778115
0.94408528
0.93991991
0.93511708
0.92960503
0.92338347
0.9164868
0.90902374
0.90097049
0.8922435
0.88289118
0.87296514
0.86254649
0.85172427
0.84053774
0.82902197
0.81717418
0.80497105
0.79242151
0.77954608
0.76637241
0.75291659
0.95871557
0.95808668
0.95671047
0.95463601
0.95195709
0.94891988
0.94558314
0.94189883
0.93775314
0.93299611
0.92755391
0.9214148
0.91461953
0.90726997
0.89934854
0.89078141
0.88159862
0.8718474
0.86159857
0.85093723
0.83991127
0.82855239
0.81687348
0.80485297
0.79248262
0.77978255
0.76677984
0.75348962
0.95642428
0.95579838
0.9544298
0.95236929
0.94970935
0.94668961
0.94337041
0.93969728
0.93557613
0.93087083
0.92549692
0.91943778
0.91274133
0.90550202
0.89770719
0.88929329
0.88027423
0.87069359
0.86061159
0.85010869
0.83924089
0.82803749
0.8165209
0.80467661
0.79248402
0.77995723
0.7671232
0.75399635
0.95410923
0.95348729
0.95212823
0.95008396
0.94744463
0.94444363
0.94114075
0.93748389
0.93339228
0.92873843
0.92343021
0.91745048
0.9108506
0.90371501
0.89604538
0.88778304
0.87892057
0.86950466
0.85958487
0.8492363
0.83852363
0.82747415
0.81611065
0.80443134
0.79241414
0.78005836
0.7673909
0.75442556
0.95177146
0.95115429
0.94980632
0.94778023
0.94516297
0.94218187
0.93889442
0.93525837
0.93120087
0.92659683
0.92135166
0.91545346
0.90895203
0.90191611
0.89436891
0.88625488
0.87754316
0.86828392
0.85852261
0.84832527
0.83776146
0.8268601
0.81564376
0.80412216
0.79227469
0.78008559
0.76758119
0.75477456
0.94941199
0.94880026
0.94746464
0.94545823
0.94286443
0.93990253
0.93663542
0.93302591
0.92900264
0.92444768
0.91926418
0.91344617
0.90704247
0.90010363
0.89267502
0.88470334
0.87613995
0.86703442
0.85742725
0.84737833
0.83695767
0.82619923
0.81512612
0.80375583
0.79207244
0.78004706
0.76770252
0.75505167
0.94703234
0.94642671
0.94510483
0.94311994
0.94055096
0.93761085
0.93436771
0.9307863
0.92679715
0.92228913
0.91716856
0.91143093
0.90512078
0.89827539
0.89096058
0.88312699
0.87470864
0.86575384
0.85629933
0.84639751
0.83611719
0.82549929
0.81456718
0.80333741
0.79180574
0.77994132
0.76775354
0.75525587
0.94463401
0.94403506
0.94272804
0.9407661
0.93822284
0.93530742
0.93209018
0.92853654
0.92458081
0.92011778
0.91506191
0.90940618
0.90318504
0.89643434
0.889233
0.88153405
0.87325859
0.86445179
0.85514797
0.84539148
0.83524877
0.82476821
0.81397222
0.80287655
0.79148819
0.77977787
0.76774153
0.75539278
0.94221889
0.94162714
0.94033604
0.93839843
0.93588266
0.93299363
0.92980273
0.92627656
0.92235315
0.91793518
0.91294394
0.90737003
0.90123746
0.89458515
0.88748981
0.87991421
0.871782
0.86312187
0.85396659
0.84435286
0.83434401
0.82399733
0.81333374
0.80236845
0.79111937
0.77955988
0.7676714
0.75546812
0.93978884
0.93920478
0.93793058
0.93601857
0.93353148
0.93066935
0.92750475
0.92400527
0.92011158
0.91574226
0.91081935
0.90532385
0.89927671
0.89271899
0.88572376
0.87826272
0.87026676
0.86174808
0.8527362
0.84326647
0.8333936
0.82317747
0.8126443
0.80180923
0.79069084
0.77927251
0.76753117
0.75547179
0.93734493
0.9367689
0.93551225
0.93362657
0.93116879
0.92833376
0.92519524
0.92172136
0.91785745
0.91353753
0.90868252
0.90326227
0.89729797
0.89083074
0.8839291
0.8765782
0.86871362
0.86033024
0.8514576
0.84213017
0.83239319
0.82230609
0.81190123
0.80119374
0.79020081
0.77891655
0.76731798
0.75539926
0.93488718
0.93431934
0.93308048
0.9312212
0.92879276
0.92598449
0.92287124
0.91942031
0.91558825
0.91131978
0.90652865
0.90117896
0.89529677
0.88892038
0.88210774
0.87486385
0.86712745
0.85887388
0.85013586
0.84094702
0.83134304
0.8213823
0.81110288
0.80051982
0.78964892
0.77849466
0.76703507
0.75525367
0.93241523
0.93185559
0.93063442
0.92880128
0.92640204
0.9236203
0.92053078
0.91710465
0.91330662
0.9090884
0.90435896
0.89907725
0.89327509
0.88698856
0.88026302
0.8731235
0.8655118
0.85738356
0.848775
0.83972004
0.83024506
0.82040713
0.81024997
0.79978853
0.7890375
0.77800912
0.76668471
0.75503876
0.9299289
0.92937744
0.92817391
0.92636671
0.92399669
0.92124129
0.91817453
0.91477545
0.91101321
0.90684282
0.90217194
0.8969576
0.89123432
0.88503419
0.87839279
0.87135365
0.86386153
0.85585648
0.84737513
0.83844813
0.82909863
0.81938047
0.809342
0.79899952
0.7883671
0.7774571
0.7662593
0.75474759
0.92742752
0.92688414
0.92569795
0.92391619
0.92157516
0.91884499
0.9158036
0.91243429
0.9087064
0.90458167
0.89996604
0.89481943
0.8891753
0.88305737
0.87649919
0.86955943
0.86218483
0.854301
0.84594438
0.8371403
0.82791468
0.81831551
0.808391
0.79816317
0.78764497
0.77684826
0.76577095
0.75438874
0.9249112
0.92437582
0.92320684
0.92145038
0.91913826
0.91643516
0.91342132
0.91008151
0.90638701
0.90230605
0.8977439
0.89266346
0.88709752
0.88106045
0.87458881
0.86774135
0.86047349
0.85271104
0.84447739
0.83579555
0.82669323
0.81721076
0.80739723
0.79728075
0.78687327
0.77618633
0.76522563
0.75396911
0.92238069
0.92185332
0.92070156
0.91897043
0.91668756
0.91401244
0.91102654
0.90771532
0.90405285
0.90001288
0.89550621
0.890494
0.88500294
0.87904376
0.87265572
0.86589496
0.85872581
0.85107969
0.84296542
0.83440416
0.82542396
0.81605623
0.80635163
0.79634394
0.78604469
0.7754656
0.76461844
0.753485
0.91983631
0.91931687
0.91818216
0.91647605
0.91422398
0.91157783
0.90861908
0.90533546
0.90170367
0.8977038
0.89325213
0.88830647
0.8828867
0.87700323
0.87069547
0.86401675
0.85694108
0.8494054
0.84140573
0.83296151
0.82410037
0.81484639
0.80525
0.79534959
0.78515744
0.77468636
0.76394742
0.75292994
0.91727844
0.91676692
0.91564923
0.91396821
0.9117483
0.90913144
0.9061986
0.90294075
0.89933642
0.89537785
0.89098205
0.88609811
0.8807446
0.87493574
0.86870716
0.8621051
0.85512093
0.84769334
0.83980262
0.83147092
0.82272498
0.81358214
0.80409155
0.79429673
0.78421025
0.77384483
0.76321123
0.75230573
0.91470779
0.91420416
0.91310348
0.91144756
0.90925995
0.90667207
0.90376427
0.90053033
0.89695349
0.89303669
0.888695
0.88386994
0.87857951
0.87284249
0.86669097
0.86016281
0.85326758
0.84594492
0.83815904
0.82993535
0.82129975
0.81226776
0.80288351
0.79319103
0.78320774
0.77294557
0.76241498
0.75161893
0.91212507
0.91162926
0.9105454
0.90891426
0.90675837
0.9041989
0.90131526
0.89810311
0.89455429
0.89067972
0.88638891
0.88161907
0.87639032
0.87072321
0.86464583
0.85818925
0.85137905
0.84415705
0.83647224
0.82835277
0.81982411
0.81090104
0.80162225
0.79203075
0.78214915
0.77198868
0.76155969
0.75087163
0.90953004
0.90904182
0.90797429
0.90636714
0.90424176
0.90170977
0.89884833
0.89566017
0.89214179
0.88830696
0.88406439
0.87934654
0.87417878
0.8685809
0.86257407
0.85618772
0.84945992
0.84233331
0.83474769
0.82673108
0.81830532
0.80948804
0.80031241
0.79082013
0.7810387
0.77097878
0.76065098
0.7500674
0.90692239
0.90644149
0.9053897
0.90380567
0.90170979
0.89920438
0.89636639
0.89320421
0.88971612
0.88591857
0.88172139
0.87705419
0.87194582
0.86641504
0.86047625
0.85416043
0.84751491
0.84048199
0.83299429
0.825079
0.8167535
0.80803886
0.79896372
0.78956844
0.77988518
0.76992403
0.75969603
0.74921277
0.90430245
0.90382865
0.90279216
0.90123062
0.89916353
0.89668496
0.89387211
0.89073623
0.88727761
0.88351341
0.87935676
0.87474164
0.86969412
0.86422825
0.85835638
0.85211199
0.84554164
0.83859401
0.83120424
0.82338884
0.8151635
0.80655092
0.79757364
0.78827322
0.77868616
0.76882187
0.75869174
0.74830663
0.90167078
0.90120395
0.90018248
0.89864312
0.89660457
0.89415369
0.89136654
0.88825597
0.8848252
0.88109179
0.87697392
0.87240977
0.8674215
0.86201791
0.85621153
0.85003634
0.84353605
0.83666757
0.82937059
0.82165159
0.81352485
0.80501318
0.79613197
0.78692438
0.77743157
0.76766257
0.75762898
0.74734084
0.89902739
0.89856738
0.89756064
0.89604309
0.89403275
0.89160941
0.88884733
0.88576079
0.88235604
0.87865065
0.87457155
0.87005828
0.86512542
0.85978025
0.85403804
0.8479306
0.84149568
0.83470453
0.82749825
0.81987055
0.81183831
0.80342347
0.79463954
0.78552652
0.77612476
0.76644868
0.75650977
0.74631724
0.89637198
0.89591862
0.89492627
0.89343
0.89144699
0.88905046
0.88631252
0.88324863
0.87986784
0.87619046
0.87215023
0.86768554
0.86280523
0.85751543
0.85183451
0.84579266
0.83942083
0.83270489
0.82558688
0.81804748
0.8101069
0.80178661
0.79309925
0.78408071
0.77476971
0.76518608
0.75534049
0.74524283
0.89370427
0.89325737
0.89227895
0.89080318
0.88884649
0.88647587
0.88376104
0.88071832
0.8773597
0.87371033
0.86970848
0.86528929
0.86045791
0.85522312
0.84960313
0.84362345
0.8373121
0.83066825
0.82363516
0.81618111
0.80832928
0.80010117
0.79150868
0.78258341
0.77336312
0.76387179
0.75411942
0.74411666
0.89102316
0.89058244
0.88961731
0.8881611
0.88622941
0.88388354
0.88119047
0.87816657
0.87483105
0.87121102
0.86724499
0.8628686
0.85808338
0.85290186
0.84734135
0.84142068
0.83516914
0.82859599
0.82164313
0.81427327
0.80650961
0.79837046
0.78987045
0.78103681
0.77190625
0.76250646
0.7528469
0.74293856
0.88832705
0.88789217
0.88693963
0.88550193
0.8835939
0.88127155
0.8785986
0.87559456
0.87228352
0.86869134
0.86475894
0.86042219
0.85568232
0.85055328
0.84504942
0.83918531
0.83299281
0.82648957
0.81961449
0.81232708
0.80465018
0.79659796
0.78818818
0.77944442
0.77040231
0.76109303
0.75152547
0.74171088
0.8856145
0.88518518
0.88424463
0.88282454
0.88093907
0.87863924
0.87598678
0.87300419
0.86971738
0.86615165
0.86225095
0.8579512
0.85325586
0.84817877
0.84272906
0.83691925
0.83078368
0.82434842
0.8175486
0.81034107
0.80274838
0.79478225
0.78646188
0.77780583
0.76885055
0.75963058
0.75015414
0.74043269
0.88288436
0.88246038
0.88153132
0.88012817
0.87826448
0.8759871
0.87335628
0.87039545
0.86713173
0.86359109
0.85971971
0.85545667
0.85080566
0.84577769
0.84037877
0.83462372
0.82854563
0.82217479
0.81544823
0.80831856
0.80080702
0.79292561
0.7846935
0.77612395
0.76725446
0.75812214
0.74873577
0.73910689
0.88013603
0.87971722
0.87879932
0.8774127
0.87557044
0.87331586
0.87070694
0.8677672
0.86452552
0.86100873
0.85716478
0.85293761
0.84833045
0.84334951
0.83799955
0.8322988
0.82627843
0.81996943
0.81331576
0.80626443
0.79883193
0.79103327
0.78288723
0.77440524
0.76562276
0.7565761
0.74727834
0.73774081
0.87736936
0.87695561
0.87604866
0.8746783
0.87285721
0.87062523
0.86803774
0.86511818
0.86189732
0.85840241
0.85458708
0.85039717
0.8458315
0.84089539
0.83559422
0.82994791
0.82398492
0.81773289
0.81114709
0.80417417
0.79681991
0.78910286
0.78104195
0.77264803
0.76395331
0.75499163
0.74578147
0.73633416
0.87458428
0.87417548
0.87327926
0.87192486
0.8701245
0.86791472
0.86534814
0.86244794
0.85924677
0.85577424
0.85198854
0.84783514
0.84330926
0.83841579
0.83316335
0.82757125
0.82166281
0.81546553
0.80894455
0.80204644
0.79476937
0.78713333
0.77915584
0.77084893
0.76224109
0.75336524
0.74424349
0.73488522
0.87178045
0.87137647
0.87049067
0.86915177
0.86737153
0.86518336
0.86263697
0.85975504
0.85657277
0.85312349
0.84936756
0.84524885
0.84076072
0.83590889
0.83070428
0.82516456
0.81930843
0.81316563
0.80670891
0.79988267
0.79268191
0.78512656
0.77723083
0.76900957
0.76048768
0.75169722
0.74266338
0.73339473
0.8689571
0.86855776
0.86768202
0.86635805
0.86459717
0.86242982
0.85990267
0.85703755
0.85387509
0.85045024
0.84672245
0.8426366
0.83818403
0.83337405
0.82821761
0.82272815
0.81692264
0.81083303
0.80443941
0.79768336
0.79055755
0.78308173
0.77526668
0.76712987
0.75869287
0.7499872
0.74104092
0.73186207
0.86611304
0.86571814
0.86485202
0.86354232
0.86179991
0.85965246
0.85714323
0.85429648
0.85115565
0.84775401
0.84405297
0.83999805
0.83558065
0.83081232
0.82570248
0.82026115
0.81450639
0.80847012
0.80213714
0.79544931
0.78839645
0.78099772
0.77326354
0.76521165
0.75685795
0.74823599
0.73937652
0.73028699
0.86324709
0.86285644
0.86199956
0.86070358
0.85897895
0.85685077
0.85436082
0.85153415
0.84841432
0.84503502
0.84135929
0.83733322
0.83295091
0.82822438
0.82315915
0.81776418
0.8120595
0.80607617
0.79980177
0.79318221
0.78620257
0.77887891
0.77122433
0.76325621
0.7549853
0.7464463
0.73767231
0.72867111
0.86035867
0.85997218
0.85912431
0.85784177
0.85613471
0.85402639
0.85155663
0.84874982
0.8456503
0.84229238
0.8386402
0.83464341
0.83029696
0.82561042
0.82058786
0.81523868
0.80958368
0.80365201
0.79743487
0.79088234
0.78397494
0.77672486
0.76914803
0.76126158
0.75307542
0.74462156
0.73593127
0.72701712
0.85744767
0.85706527
0.85622634
0.8549572
0.85326777
0.8511795
0.84872984
0.84594246
0.84286258
0.8395251
0.83589616
0.83192914
0.82761812
0.82297002
0.81798828
0.81268497
0.80707983
0.80119798
0.79503724
0.78855048
0.78171309
0.77453582
0.76703621
0.75923026
0.75112866
0.74276012
0.73415371
0.72532651
0.85451401
0.8541357
0.85330564
0.8520498
0.85037779
0.84830932
0.84587937
0.84311073
0.84004969
0.83673141
0.83312642
0.82919005
0.82491294
0.82030168
0.81536032
0.8101026
0.8045462
0.79871279
0.79260883
0.78618804
0.77941874
0.77231434
0.76489229
0.75716566
0.74914774
0.74086375
0.73234193
0.72360245
0.85155743
0.85118311
0.85036175
0.84911889
0.84746388
0.84541472
0.84300389
0.8402531
0.83720953
0.83391179
0.83033249
0.82642562
0.82218118
0.81760523
0.81270474
0.80749333
0.80198441
0.79619858
0.79015063
0.78379523
0.77709331
0.77006125
0.76271638
0.7550684
0.74713326
0.73893319
0.73049562
0.72184344
0.84857703
0.84820659
0.84739367
0.84616341
0.84452487
0.84249447
0.84010206
0.83736808
0.83434308
0.83106747
0.82751317
0.82363491
0.81942194
0.81488165
0.81002257
0.80485643
0.79939354
0.79365625
0.78766509
0.7813731
0.77473766
0.76777696
0.76050737
0.7529387
0.74508714
0.73696963
0.72861542
0.72004973
0.84557169
0.84520501
0.84440024
0.84318215
0.84155951
0.83954724
0.83717242
0.83445631
0.83145162
0.82819781
0.82466768
0.82081701
0.81663432
0.81213006
0.80731298
0.80219116
0.79677359
0.79108479
0.78515051
0.77892137
0.77235347
0.76546514
0.75826986
0.75077999
0.74301159
0.73497581
0.72670382
0.71822372
0.84254041
0.84217737
0.84138052
0.84017426
0.8385671
0.83657255
0.83421626
0.83151977
0.82853554
0.8253029
0.82179598
0.81797141
0.81382014
0.80935338
0.80457722
0.79949868
0.79412742
0.7884887
0.78260848
0.77643962
0.76993963
0.76312378
0.75600229
0.74859018
0.74090345
0.7329512
0.72476323
0.71636724
0.83948283
0.83912339
0.83833439
0.83713988
0.83554823
0.83357206
0.83123543
0.82855904
0.82559512
0.82238324
0.81889876
0.81510063
0.81098181
0.80655238
0.80181637
0.79678015
0.79145518
0.78586661
0.78003739
0.77392712
0.76749503
0.76075004
0.75370246
0.74636838
0.73876231
0.73089452
0.72279175
0.71447934
0.83639911
0.83604328
0.83526218
0.8340796
0.83250376
0.83054638
0.82822967
0.82557334
0.82262939
0.8194377
0.81597499
0.81220414
0.80811842
0.80372505
0.79902768
0.79403406
0.78875623
0.78321679
0.77743682
0.77138447
0.7650199
0.75834441
0.75137085
0.74411517
0.73658911
0.72880534
0.72078729
0.71255938
0.83328954
0.83293736
0.83216423
0.83099364
0.82943364
0.82749503
0.82519813
0.82256152
0.81963706
0.81646461
0.81302499
0.8092831
0.80522954
0.80087132
0.79621156
0.79126052
0.78603024
0.78053913
0.77480812
0.76881329
0.76251522
0.7559083
0.74900799
0.74183019
0.73438384
0.72668374
0.71875007
0.71060686
0.83015408
0.82980552
0.8290403
0.82788157
0.82633721
0.82441714
0.82213974
0.81952234
0.8166165
0.81346467
0.81004994
0.80633633
0.80231406
0.79798966
0.79336855
0.78846127
0.78327729
0.77783323
0.77215178
0.76621491
0.75998146
0.75344306
0.74661598
0.73951436
0.73214823
0.72453249
0.71668215
0.70862292
0.82699214
0.82664714
0.82588968
0.8247426
0.82321358
0.82131169
0.81905334
0.81645447
0.8135685
0.81043901
0.80704885
0.80336303
0.7993714
0.79508091
0.79049907
0.78563549
0.7804972
0.77509996
0.76946797
0.76358865
0.75741908
0.75094947
0.74419601
0.73716997
0.7298837
0.72235195
0.71458422
0.70660797
0.82380296
0.82346145
0.8227116
0.82157595
0.82006194
0.81817788
0.81593825
0.81335954
0.81049528
0.80738789
0.80402177
0.80036302
0.79640103
0.79214533
0.78760374
0.78278283
0.7776891
0.7723397
0.76675828
0.76093531
0.75482875
0.74842712
0.74174637
0.7347948
0.72758694
0.72013746
0.71245443
0.70456333
0.82058596
0.82024789
0.81950557
0.81838122
0.81688212
0.81501598
0.81279633
0.81023926
0.80739678
0.80431116
0.80096845
0.79733568
0.79340441
0.7891849
0.78468278
0.77990369
0.77485428
0.7695526
0.76402119
0.7582534
0.75221052
0.74587746
0.73926751
0.73239089
0.7252622
0.71789386
0.71029589
0.70249057
0.81734116
0.81700654
0.81627177
0.81515883
0.81367491
0.81182732
0.8096284
0.80709325
0.8042725
0.80120834
0.79788836
0.79428207
0.79038273
0.78619924
0.78173577
0.77699742
0.7719932
0.76674023
0.76125796
0.75554468
0.74956492
0.74330019
0.73676068
0.72995898
0.72290948
0.71562194
0.70810858
0.70038854
0.81406896
0.81373785
0.81301078
0.81190945
0.81044094
0.80861215
0.80643412
0.80392089
0.8011217
0.79807856
0.79478146
0.79120308
0.78733629
0.78318812
0.77876253
0.77406542
0.76910705
0.76390228
0.75846831
0.75281053
0.74689476
0.74069713
0.73422742
0.72749997
0.72052871
0.71332188
0.70589303
0.69825749
0.81076981
0.81044223
0.80972289
0.80863321
0.80718012
0.80537011
0.80321293
0.80072146
0.79794349
0.79492141
0.79164884
0.78809957
0.78426485
0.78015147
0.77576304
0.77110779
0.76619602
0.76103889
0.75565281
0.75005053
0.74419868
0.73806721
0.73166813
0.7250157
0.71812144
0.71099547
0.70365134
0.69609932
0.80744349
0.80711942
0.80640775
0.80532962
0.80389182
0.80210043
0.79996387
0.79749383
0.79473719
0.79173776
0.7884909
0.78497033
0.78116713
0.77708764
0.77273762
0.76812569
0.76325983
0.75814961
0.75281259
0.74726712
0.74147901
0.73541347
0.72908479
0.72250716
0.71568931
0.70864345
0.70138294
0.69391538
0.80408966
0.80376906
0.80306498
0.80199829
0.8005756
0.79880264
0.7966865
0.79423841
0.79150481
0.7885291
0.78530781
0.78181573
0.77804368
0.77399889
0.76968864
0.76512032
0.7603004
0.75523717
0.7499504
0.74445892
0.73873072
0.73273285
0.72647575
0.71997212
0.71323068
0.7062648
0.69908691
0.69170509
0.80070817
0.80039103
0.79969452
0.79863922
0.79723162
0.79547714
0.79338216
0.79095763
0.78824804
0.78529604
0.78210014
0.77863616
0.77489513
0.77088614
0.76661627
0.76209078
0.75731573
0.75230033
0.7470645
0.74162518
0.73595509
0.73002424
0.72383859
0.7174082
0.71074381
0.70385869
0.69676309
0.68946706
0.79729932
0.79698566
0.79629677
0.79525299
0.79386074
0.79212533
0.79005241
0.78765217
0.7849668
0.78203847
0.77886762
0.77543113
0.7717223
0.76775044
0.76352036
0.75903706
0.75430682
0.74933943
0.74415414
0.73876616
0.73315434
0.72729064
0.72117557
0.71481774
0.70822988
0.70142518
0.69441139
0.68720049
0.79386373
0.79355361
0.7928725
0.79184049
0.79046389
0.78874788
0.78669734
0.78432156
0.7816604
0.77875554
0.77560915
0.77220149
0.76852654
0.7645912
0.76040021
0.75595814
0.75127333
0.74635461
0.74121881
0.73588126
0.73032768
0.72453095
0.718485
0.71219991
0.70568871
0.69896281
0.69203065
0.68490456
0.79040199
0.79009546
0.78942219
0.78840201
0.7870411
0.78534451
0.78331633
0.7809649
0.77832779
0.77544595
0.77232547
0.76894837
0.76530681
0.76140739
0.7572546
0.75285438
0.7482157
0.74334539
0.73825869
0.73297176
0.72747669
0.7217459
0.71576814
0.70955548
0.70312078
0.69647299
0.68962236
0.68258105
0.78691422
0.78661125
0.7859458
0.7849374
0.78359211
0.78191483
0.77990888
0.77758161
0.77496844
0.77211122
0.76901833
0.76567164
0.76206317
0.75819914
0.75408461
0.74972708
0.7451347
0.74031263
0.73527471
0.73003867
0.72460226
0.71893637
0.71302671
0.70688643
0.70052735
0.69395687
0.68718701
0.68022985
0.78340029
0.78310086