/*--------------------------------*- C++ -*----------------------------------*\
  =========                 |
  \\      /  F ield         | OpenFOAM: The Open Source CFD Toolbox
   \\    /   O peration     | Website:  https://openfoam.org
    \\  /    A nd           | Version:  7
     \\/     M anipulation  |
\*---------------------------------------------------------------------------*/
FoamFile
{
    version     2.0;
    format      ascii;
    class       volScalarField;
    location    "50000";
    object      chi_st;
}
// * * * * * * * * * * * * * * * * * * * * * * * * * * * * * * * * * * * * * //

dimensions      [0 0 -1 0 0 0 0];

internalField   nonuniform List<scalar> 
113400
(
7.1337034e-08
9.7130709e-08
1.7377602e-07
3.6213904e-07
8.1641434e-07
2.1667851e-06
6.624509e-06
2.3162216e-05
9.1569746e-05
0.00042403558
0.0022824653
0.016746201
0.1746779
0.87140605
2.4438283
4.7133686
9.357709
17.622596
32.687773
60.364708
111.65922
207.49423
380.35894
678.6676
1169.1805
1797.8816
2429.7045
3146.6362
8.653687e-07
1.930763e-06
4.7644614e-06
1.1028446e-05
2.8114492e-05
7.6808601e-05
0.0002225543
0.00073707914
0.0028549239
0.013653399
0.084295464
0.4633363
1.2979393
1.8891161
3.2168345
7.323919
14.188061
25.882371
45.281822
76.852561
126.28989
197.71525
287.63761
386.91938
481.97286
545.84344
559.50646
525.46904
3.566768e-06
9.8751045e-06
2.6582674e-05
6.5611652e-05
0.00016274803
0.00043667457
0.0013004201
0.0043348409
0.016287272
0.068417423
0.33333465
1.0351348
1.6559226
2.3311406
4.4552548
9.1969708
17.603138
31.682864
53.523504
84.885807
127.0052
178.41768
232.91083
282.03441
317.40113
334.44883
334.77226
323.75659
1.0432415e-05
3.2274724e-05
9.0456908e-05
0.00023302935
0.00061004954
0.0017225319
0.0052115506
0.016925691
0.060291023
0.25230122
0.81929063
1.431503
1.9416565
3.2781203
6.2862812
12.089107
22.021762
37.333256
59.481698
88.353926
121.77278
156.54285
188.83901
215.0491
232.84994
241.65253
243.3132
240.57712
2.6633089e-05
8.9321424e-05
0.00025992031
0.00068730973
0.0018151667
0.0050177086
0.014557766
0.044555168
0.1524456
0.50244693
1.1540307
1.6321374
2.3167919
4.1928656
7.9040198
14.584234
25.275483
40.028407
59.051447
81.608156
106.0025
130.32672
152.02896
169.3107
181.81605
189.95076
194.69419
197.24425
6.2158078e-05
0.00022099098
0.00066664496
0.0017641875
0.0045540954
0.012077307
0.033122416
0.098035601
0.32788254
0.82865863
1.3675577
1.8129012
2.8444837
5.231417
9.6226028
17.11515
27.907401
41.448237
57.733654
75.732591
94.238455
112.20612
128.33986
141.66927
152.01003
159.70181
165.31988
169.42501
0.00013900353
0.0005259914
0.0015765551
0.0041021469
0.010326594
0.026272524
0.070805304
0.20607055
0.56559959
1.122956
1.4920276
1.9820436
3.4067743
6.2789528
11.325349
19.133112
29.239902
41.499665
55.371146
69.879599
84.292691
98.016344
110.65098
121.71481
130.91153
138.40314
144.48375
149.40424
0.00029141652
0.0011434238
0.0034062194
0.0086148081
0.021006622
0.052430191
0.13551224
0.38029215
0.84561061
1.3058232
1.6172086
2.2994954
4.0657228
7.3837612
12.965009
20.776
30.065477
41.071966
53.097954
65.126657
76.772632
87.806851
98.012794
107.33513
115.6483
122.8066
128.88608
134.01007
0.00057367184
0.0022893736
0.0066939561
0.01668626
0.039932719
0.096402967
0.24566171
0.60111996
1.0879953
1.4327901
1.7975368
2.7323575
4.8258002
8.5262711
14.409388
22.062677
30.586382
40.309259
50.74445
61.021157
70.802116
80.006881
88.600409
96.511881
103.81604
110.51039
116.447
121.56515
0.001051076
0.0042810379
0.012520248
0.030588744
0.071544937
0.16872523
0.41361775
0.83931998
1.2258407
1.4886182
1.9589775
3.1645245
5.5836696
9.6185054
15.544867
22.768554
30.618516
39.270261
48.433959
57.414616
65.935426
73.887631
81.372665
88.374541
94.817534
100.79457
106.3657
111.36169
0.0018137678
0.0074925256
0.021668069
0.052516024
0.12028354
0.27560295
0.6162412
1.0463112
1.3338542
1.5821963
2.1671558
3.6079243
6.2989058
10.538315
16.343126
23.118557
30.358899
38.134177
46.257935
54.216453
61.815274
68.903329
75.52106
81.805225
87.703647
93.132738
98.137351
102.74989
0.0029259814
0.012257931
0.035554399
0.084717693
0.1897143
0.42372323
0.80789829
1.1600152
1.4205628
1.7484992
2.4758146
4.1126115
6.986016
11.311894
16.947266
23.261341
29.912866
36.971633
44.258904
51.399986
58.271187
64.732635
70.723576
76.377295
81.775028
86.82184
91.447541
95.627868
0.0044923508
0.019050523
0.054643057
0.12847435
0.28008483
0.59313307
0.98870967
1.2402856
1.4757722
1.8930054
2.7898559
4.6297541
7.6548968
11.921621
17.283337
23.185182
29.300114
35.777687
42.413502
48.907297
55.19489
61.156335
66.69514
71.867406
76.789998
81.462547
85.784876
89.687041
0.0065954019
0.028253672
0.081099389
0.18868772
0.40135529
0.75961271
1.0868723
1.3014334
1.5468778
2.0022241
3.068578
5.1307719
8.2606404
12.372485
17.451199
22.987881
28.624897
34.61026
40.725923
46.701512
52.508612
58.053903
63.232885
68.045218
72.573469
76.869681
80.895254
84.552439
0.009139621
0.039567806
0.11231226
0.2536065
0.51843147
0.87572237
1.1463643
1.3680383
1.6376301
2.1536589
3.3716031
5.583276
8.6887512
12.630955
17.490831
22.713455
27.94362
33.462595
39.158031
44.728141
50.127272
55.319556
60.194299
64.717997
68.949557
72.922942
76.646501
80.062488
0.011954682
0.051943214
0.14534099
0.32155194
0.63765702
0.98882988
1.2047521
1.4281409
1.7428549
2.3482474
3.6895765
5.968612
9.0064489
12.793588
17.426139
22.365691
27.241841
32.335386
37.667493
42.908577
47.971611
52.8578
57.466521
61.746253
65.743257
69.479343
72.94297
76.106007
0.015035828
0.065564213
0.18207492
0.39838132
0.74040536
1.0523276
1.2563984
1.4959457
1.8472849
2.56078
4.025162
6.3289714
9.2518897
12.880026
17.296781
21.991711
26.555786
31.258332
36.26849
41.225102
45.996222
50.613064
54.987234
59.056696
62.853472
66.402868
69.675484
72.617659
0.018081969
0.078954483
0.21653408
0.46198722
0.80157024
1.0867774
1.3028019
1.5515174
1.9446668
2.7798002
4.367917
6.6258986
9.4041842
12.929794
17.13325
21.580844
25.88942
30.249853
34.954396
39.670756
44.19826
48.582657
52.746118
56.628332
60.254076
63.644721
66.759825
69.543241
0.020794235
0.090888507
0.24592873
0.51222462
0.84678774
1.1125821
1.3354952
1.5909984
2.0250528
2.9768562
4.6199885
6.8019465
9.4841383
12.884816
16.905183
21.141286
25.240734
29.325453
33.725516
38.215319
42.552354
46.74366
50.723492
54.442678
57.925314
61.18391
64.168071
66.819804
0.023064965
0.10088656
0.27004078
0.55280464
0.88409584
1.1380357
1.3645836
1.6345005
2.1199876
3.1333224
4.7909687
6.9236115
9.5019897
12.7601
16.608912
20.668642
24.60125
28.4653
32.58001
36.846486
41.016781
45.044095
48.867836
52.442965
55.802735
58.953062
61.830365
64.376326
0.02497512
0.10924406
0.29005561
0.58657815
0.91490039
1.1615447
1.3940215
1.6901816
2.2278535
3.2768101
4.9195661
7.003171
9.4899027
12.596528
16.279694
20.184942
23.9735
27.642905
31.496011
35.551257
39.566591
43.447774
47.135725
50.58189
53.834621
56.890554
59.674238
62.143112
0.026643448
0.11651399
0.30747224
0.61606864
0.94204264
1.1821138
1.4181728
1.744798
2.3340159
3.4051443
5.0158606
7.0473193
9.4561242
12.418453
15.938528
19.698545
23.364989
26.858688
30.45828
34.312662
38.187272
41.936152
45.506408
48.842661
51.998455
54.970191
57.675979
60.086095
0.028138047
0.1229831
0.32299073
0.64248593
0.96682435
1.2023182
1.4414524
1.7947269
2.430249
3.5195879
5.1003846
7.0762105
9.402188
12.238526
15.613942
19.217019
22.748253
26.104808
29.495779
33.138021
36.861841
40.494025
43.962394
47.20516
50.274358
53.171784
55.814212
58.18022
0.029550592
0.12900638
0.33753013
0.66776948
0.99229073
1.2230345
1.465729
1.841846
2.51265
3.6102858
5.1677828
7.0929212
9.3275784
12.042444
15.278176
18.735135
22.139701
25.384889
28.614088
32.043413
35.600381
39.122579
42.496779
45.659236
48.656016
51.484491
54.069829
56.402495
0.030964187
0.13502341
0.35239456
0.68948675
1.0119025
1.2428642
1.4920165
1.887723
2.5871812
3.6845673
5.2162496
7.0928727
9.2349465
11.825831
14.920777
18.247218
21.546336
24.696525
27.78681
31.019151
34.412439
37.826713
41.111486
44.200928
47.134442
49.900946
52.435399
54.742686
0.032303795
0.14058146
0.36553886
0.70514835
1.024954
1.2609786
1.5210809
1.9297538
2.6423898
3.7419222
5.2563025
7.0869717
9.1376077
11.601266
14.556877
17.761386
20.966573
24.030671
26.991256
30.032981
33.271095
36.590555
39.795762
42.820395
45.700854
48.416799
50.905641
53.191337
0.033470668
0.14522891
0.37591274
0.71631911
1.0347333
1.2771063
1.5486908
1.9677771
2.6842469
3.7840545
5.2790027
7.0576265
9.0302055
11.378965
14.196261
17.283363
20.399289
23.375792
26.237522
29.137788
32.20133
35.399379
38.537847
41.507232
44.340056
47.011679
49.465722
51.735434
0.034466348
0.14905602
0.38422635
0.72521531
1.0430762
1.2934639
1.5723459
1.9926881
2.7129733
3.8142587
5.2822058
7.0029288
8.9071133
11.155996
13.844374
16.819569
19.851986
22.753837
25.533167
28.313303
31.211931
34.28192
37.349242
40.262351
43.048047
45.680202
48.106742
50.362083
0.035307851
0.15213448
0.39066769
0.73177471
1.0501206
1.3072395
1.5921505
2.0123204
2.7316419
3.8305991
5.2723016
6.9376189
8.7761788
10.932599
13.507675
16.374773
19.316742
22.15726
24.868943
27.533183
30.270894
33.216294
36.217849
39.078245
41.820189
44.416792
46.822679
49.0695
0.036030325
0.15460994
0.39572536
0.73675611
1.0574403
1.3193829
1.6079244
2.031212
2.7490584
3.8387633
5.2507298
6.8688388
8.6426359
10.700206
13.176476
15.952333
18.80117
21.577475
24.222524
26.795589
29.407109
32.210656
35.125571
37.941526
40.645549
43.212185
45.603754
47.842585
0.036673275
0.15665398
0.39975212
0.7409659
1.0632888
1.328071
1.6208674
2.0487501
2.7647413
3.8381676
5.211484
6.7897338
8.507046
10.466877
12.844316
15.528565
18.295066
21.01416
23.599617
26.106078
28.619473
31.278836
34.091025
36.86016
39.525835
42.06358
44.441342
46.675226
0.037236438
0.1582736
0.4027266
0.74406295
1.0672915
1.3340191
1.6319072
2.0644859
2.7777005
3.8329976
5.163865
6.7025627
8.3671874
10.231184
12.510803
15.104391
17.794491
20.464486
22.999302
25.450222
27.877313
30.398218
33.107691
35.831377
38.4598
40.970302
43.335502
45.565982
0.037725056
0.15949837
0.40474435
0.74573408
1.0696638
1.3387784
1.6421795
2.0803819
2.7866291
3.8166328
5.1099964
6.6153134
8.2283294
9.9942044
12.173973
14.683218
17.302564
19.929126
22.419267
24.814584
27.172718
29.580594
32.175626
34.840031
37.43735
39.924841
42.280282
44.509617
0.038139708
0.16033521
0.40578853
0.74611512
1.0709831
1.3428381
1.6516453
2.0954575
2.7913084
3.7896088
5.049013
6.5175673
8.081167
9.7768939
11.855788
14.268478
16.814646
19.388661
21.847972
24.201237
26.508793
28.834611
31.307222
33.892944
36.459634
38.925375
41.27184
43.500913
0.038485629
0.16081728
0.40599238
0.74549496
1.0716129
1.3464877
1.661183
2.1083932
2.7897658
3.7565459
4.984418
6.4155777
7.9323003
9.5711374
11.556795
13.869687
16.338392
18.855473
21.287194
23.607776
25.874377
28.13052
30.48596
32.990367
35.525752
37.970042
40.307657
42.536785
0.038774885
0.16098757
0.40546491
0.74399857
1.0716375
1.3498298
1.6710059
2.1189591
2.7806911
3.7189964
4.9214092
6.3164953
7.7879304
9.3741891
11.273826
13.491302
15.882113
18.340232
20.742923
23.031614
25.256996
27.45631
29.712058
32.126626
34.621889
37.049481
39.380703
41.611539
0.039015369
0.16089326
0.40434485
0.74182984
1.0711192
1.3536346
1.6791364
2.1239509
2.767933
3.6823884
4.8595641
6.2184113
7.6514405
9.1850952
10.993931
13.126902
15.449985
17.848407
20.221516
22.477488
24.658571
26.819078
29.004529
31.316794
33.750944
36.162919
38.488045
40.721024
0.039217619
0.1605823
0.40272487
0.7390436
1.0700262
1.3576834
1.6855161
2.123509
2.7525957
3.6476218
4.7961916
6.1139305
7.5147756
9.0017893
10.720774
12.776704
15.043503
17.382256
19.719079
21.95013
24.095923
26.220233
28.342876
30.556466
32.925182
35.31759
37.633781
39.867024
0.039385665
0.16008949
0.40069791
0.73565466
1.0689696
1.3598848
1.6864757
2.1193359
2.7366906
3.6130701
4.7333916
6.0093241
7.3796507
8.8246226
10.460561
12.440078
14.648076
16.932803
19.235094
21.446185
23.564393
25.650762
27.71622
29.839414
32.137183
34.505618
36.814554
39.048182
0.039508601
0.15936314
0.39807427
0.73144414
1.0664528
1.3592432
1.6845236
2.1138733
2.721481
3.578003
4.667937
5.9071521
7.2515442
8.6564242
10.211977
12.115048
14.264038
16.493482
18.759589
20.954723
23.049223
25.0984
27.13011
29.193454
31.40392
33.725681
36.028288
38.261482
0.039586319
0.15842449
0.39494775
0.72658937
1.0624017
1.3563324
1.681551
2.1085112
2.7072064
3.5418027
4.597942
5.806055
7.1246542
8.4845812
9.9663665
11.79729
13.888124
16.063881
18.293693
20.475937
22.551785
24.571357
26.579991
28.595963
30.724228
32.994035
35.284693
37.513495
0.039613635
0.15726264
0.39128406
0.72071802
1.0569127
1.352302
1.6782343
2.1035115
2.6928609
3.5044678
4.5264369
5.7035367
6.9918523
8.3153856
9.7450809
11.496297
13.516093
15.643984
17.841566
20.015708
22.076403
24.068061
26.055734
28.026901
30.07431
32.293375
34.574396
36.799307
0.03959381
0.1558836
0.38709526
0.71403365
1.0506854
1.347936
1.6751133
2.1000876
2.6771066
3.4606357
4.4535571
5.606144
6.8658655
8.1580757
9.5446484
11.221
13.167745
15.247274
17.402469
19.554424
21.609609
23.583288
25.543649
27.488233
29.482762
31.633289
33.883755
36.108685
0.039546206
0.15435541
0.38257806
0.70689204
1.0440876
1.3434842
1.6725038
2.0969633
2.6602942
3.415725
4.3830421
5.5138309
6.7471092
8.0139124
9.3593669
10.961031
12.839943
14.872186
16.978654
19.101327
21.151364
23.112576
25.049931
26.977646
28.933462
31.015905
33.227072
35.447732
0.039492975
0.15277508
0.37799144
0.69967845
1.0375445
1.3394719
1.6715688
2.0938578
2.6402663
3.3717285
4.3192463
5.426001
6.6280951
7.8742966
9.1838006
10.710711
12.527579
14.517116
16.57417
18.666198
20.710189
22.660272
24.577173
26.4907
28.411708
30.429102
32.600668
34.815485
0.03944777
0.15120678
0.37346541
0.69252065
1.0310279
1.3361069
1.6701615
2.0879944
2.6188653
3.3293889
4.2585769
5.3416483
6.5112979
7.7371747
9.0135555
10.469594
12.229392
14.181238
16.19185
18.253224
20.290309
22.22872
24.124651
26.022385
27.912975
29.871474
31.999079
34.204264
0.0394134
0.14964932
0.3689677
0.68532651
1.0244431
1.3331212
1.667783
2.0793383
2.5973897
3.2904819
4.200327
5.258348
6.3989981
7.6073255
8.8524002
10.242394
11.944336
13.855446
15.828074
17.863115
19.889026
21.817024
23.692297
25.569734
27.44367
29.36489
31.433714
33.610035
0.039396595
0.14814317
0.36460342
0.6782324
1.0182183
1.3290991
1.6622341
2.0694367
2.577592
3.2548894
4.1436042
5.1734284
6.290034
7.4824891
8.6927678
10.019021
11.665836
13.538212
15.480067
17.488769
19.495997
21.421355
23.285504
25.143804
27.004914
28.895386
30.906494
33.047976
0.039381531
0.14663687
0.36021566
0.67102113
1.0109487
1.3228198
1.6552127
2.0597139
2.5590282
3.2212654
4.0888515
5.0898847
6.182471
7.3540873
8.53725
9.8207837
11.404708
13.225992
15.139326
17.120248
19.112769
21.041585
22.898168
24.739922
26.589891
28.45184
30.407605
32.514022
0.039359616
0.14509336
0.35572128
0.66350624
1.0028984
1.3156071
1.648134
2.0509001
2.5426913
3.1874518
4.029813
5.0068401
6.0809814
7.2324213
8.3932487
9.6430762
11.165806
12.931381
14.81174
16.761457
18.740744
20.675509
22.526702
24.353784
26.191756
28.027479
29.930791
31.999325
0.039338474
0.14355228
0.351248
0.65536515
0.99360708
1.3080645
1.6416936
2.0431394
2.5274102
3.1541255
3.972026
4.9284988
5.9855732
7.1176738
8.2602942
9.4803122
10.945819
12.657259
14.502511
16.41946
18.381476
20.317652
22.164997
23.978939
25.801232
27.622342
29.494319
31.513743
0.039309804
0.14197301
0.346649
0.64651279
0.98336479
1.3006915
1.6365902
2.0381033
2.5130222
3.1188019
3.9173078
4.8592812
5.8965078
7.0055876
8.1359503
9.328198
10.733635
12.398342
14.213968
16.096882
18.039367
19.974914
21.817071
23.616267
25.425265
27.236407
29.082537
31.054134
0.03926888
0.14034648
0.34192162
0.63738707
0.97291656
1.29357
1.6326346
2.0337753
2.4978277
3.0838585
3.8659219
4.7952858
5.8133592
6.8989638
8.0177746
9.1836149
10.530871
12.152958
13.94302
15.795219
17.711275
19.635436
21.479232
23.271315
25.065915
26.867343
28.688542
30.613856
0.039226363
0.13871502
0.33720534
0.62837325
0.96268848
1.2868989
1.6300945
2.0301029
2.4815501
3.0505995
3.8199143
4.7356975
5.7335153
6.7979676
7.9063769
9.0480803
10.341501
11.922466
13.687688
15.509887
17.397037
19.305301
21.149926
22.9368
24.717894
26.509672
28.306054
30.185111
0.039202786
0.13716019
0.3327038
0.61983885
0.95307508
1.2813521
1.6270367
2.0232138
2.4647994
3.0204854
3.7781843
4.6791072
5.6545054
6.7015238
7.8008612
8.9179625
10.164233
11.704226
13.439082
15.236146
17.099038
18.989021
20.832238
22.6126
24.379147
26.15876
27.93698
29.779182
0.039198734
0.13569713
0.32843329
0.61170877
0.94392105
1.2751986
1.6217245
2.0145909
2.449123
2.9935897
3.7392164
4.6245386
5.5786184
6.6096375
7.6971813
8.7866642
9.988926
11.490448
13.195619
14.971039
16.813999
18.687042
20.527731
22.300847
24.052574
25.819102
27.586163
29.401729
0.039202476
0.13428668
0.32429038
0.60377632
0.93458271
1.2676624
1.6148649
2.0057971
2.4361768
2.9727297
3.7023978
4.5665548
5.5028427
6.5208272
7.5931324
8.6636214
9.8367273
11.291048
12.956553
14.711172
16.533192
18.395046
20.237348
22.002606
23.739647
25.49359
27.25076
29.041983
0.039208317
0.13288929
0.32016616
0.59580716
0.92464524
1.2590861
1.6079086
1.9982579
2.42575
2.954779
3.6675922
4.5107134
5.4312957
6.4367564
7.4942181
8.5516467
9.7026455
11.111726
12.735084
14.463764
16.261263
18.113176
19.959618
21.717947
23.43975
25.179952
26.926292
28.692907
0.039223474
0.13152056
0.31608309
0.58785983
0.91462298
1.2505939
1.6017412
1.9923747
2.4181978
2.9385508
3.6325217
4.4584102
5.3676903
6.3587002
7.399131
8.4486466
9.5788106
10.939874
12.527687
14.235391
16.008075
17.840153
19.678251
21.439585
23.156255
24.879858
26.613005
28.353273
0.039251544
0.13019228
0.31211123
0.58019449
0.90500166
1.2426446
1.596575
1.9883387
2.4117277
2.9218943
3.5989201
4.4106463
5.3100844
6.2874403
7.3104687
8.351912
9.4617346
10.775932
12.330808
14.019362
15.766883
17.575511
19.400879
21.164347
22.876849
24.586749
26.307549
28.02728
0.039301657
0.1289396
0.30834779
0.57296146
0.89594702
1.2353991
1.5926103
1.9861702
2.4062577
2.9053116
3.5680995
4.3690076
5.256487
6.2170392
7.2267613
8.2636657
9.353662
10.623264
12.146162
13.815921
15.538223
17.321824
19.132586
20.894727
22.600619
24.296895
26.004798
27.711521
0.039393994
0.12781823
0.30490277
0.56634495
0.88773358
1.229209
1.5905808
1.9846888
2.3990111
2.8894526
3.5414218
4.3322824
5.2074147
6.1502181
7.1489806
8.1808516
9.249094
10.480928
11.972433
13.617007
15.318571
17.081573
18.875214
20.633285
22.330692
24.012052
25.706352
27.400958
0.039536675
0.1268521
0.30182487
0.56040944
0.88040856
1.2242373
1.5886483
1.9814463
2.3915585
2.8760531
3.518966
4.2989789
5.159761
6.0873909
7.0776745
8.1023108
9.1468971
10.344038
11.806317
13.424709
15.10691
16.851816
18.628503
20.380822
22.068384
23.733856
25.413611
27.095362
0.039725172
0.12602236
0.29905582
0.55501053
0.87377317
1.2193381
1.5853454
1.9770915
2.3849688
2.8649094
3.5001171
4.2686106
5.1132278
6.0279367
7.0123059
8.029855
9.0509088
10.214677
11.649691
13.242978
14.90338
16.627345
18.39036
20.139146
21.814932
23.462829
25.126473
26.793792
0.039949189
0.12529501
0.29650781
0.54996551
0.86727705
1.213635
1.5809706
1.9730289
2.3798739
2.8564084
3.4832409
4.2384445
5.0696867
5.9754283
6.950467
7.9561414
8.9594831
10.094236
11.500381
13.071193
14.709333
16.409221
18.158665
19.903976
21.569256
23.199679
24.844449
26.493916
0.04019464
0.12462615
0.29407232
0.54503266
0.86055584
1.2073953
1.5766049
1.9698425
2.3761799
2.8501278
3.468446
4.2091924
5.028524
5.9270743
6.8910753
7.8822782
8.8711402
9.9780446
11.35083
12.902544
14.523509
16.200245
17.930158
19.664309
21.326114
22.945837
24.570015
26.200086
0.040453068
0.12398834
0.29168127
0.5401371
0.85383243
1.2012765
1.5728464
1.9678384
2.3745647
2.8441823
3.4510777
4.1804925
4.9916846
5.8810018
6.8314192
7.8084814
8.7903142
9.8773156
11.210005
12.736075
14.342397
15.996671
17.703763
19.422957
21.084009
22.697388
24.302369
25.913784
0.040724449
0.12338049
0.28935684
0.53537885
0.84729786
1.1954388
1.5696741
1.966926
2.3731874
2.8367785
3.4331439
4.1537977
4.9586772
5.8373072
6.7720772
7.7390528
8.7172866
9.7855022
11.081104
12.579012
14.16569
15.799039
17.484632
19.187461
20.843302
22.445985
24.036783
25.634525
0.041019893
0.12283305
0.28716751
0.53087922
0.8411295
1.1901122
1.567437
1.967148
2.3716356
2.8284537
3.4165426
4.1306468
4.9287638
5.7957918
6.7162365
7.6753324
8.6481076
9.6952324
10.958465
12.429219
13.991887
15.606264
17.272875
18.958052
20.606708
22.197625
23.771383
25.352482
0.041350742
0.12237347
0.28517581
0.52675392
0.83551052
1.1855641
1.5665468
1.9676247
2.3684827
2.8203876
3.4027557
4.1112152
4.900791
5.7535306
6.6625938
7.6167143
8.5832808
9.6088775
10.8408
12.285267
13.823552
15.418855
17.066993
18.734751
20.374902
21.952324
23.506863
25.069332
0.041725039
0.12202396
0.2834313
0.52308894
0.83056519
1.1820589
1.5653588
1.9657701
2.3647684
2.8141642
3.3916834
4.0938108
4.8732173
5.7131249
6.6134929
7.5607469
8.5181441
9.5262749
10.730738
12.14888
13.664313
15.236711
16.860469
18.514741
20.150103
21.712129
23.245955
24.788802
0.042137384
0.12177014
0.2818914
0.51976904
0.82605281
1.1779755
1.5621837
1.9630359
2.361946
2.8096147
3.38352
4.0782563
4.8453755
5.6747096
6.568953
7.5079648
8.4544818
9.4475373
10.624049
12.012077
13.508635
15.061536
16.659627
18.299081
19.928924
21.477609
22.991407
24.513223
0.04257226
0.12156349
0.28043153
0.51651744
0.82120906
1.1729392
1.5584312
1.9607283
2.3601692
2.8071011
3.3763263
4.0613332
4.8184157
5.6403984
6.5273639
7.4563763
8.3932208
9.3727864
10.521585
11.879364
13.358017
14.893525
16.467772
18.084251
19.69828
21.242262
22.74464
24.243501
0.043019915
0.12136915
0.27895735
0.51316659
0.816121
1.1676936
1.5548427
1.9590317
2.3594694
2.8054904
3.3688279
4.0441482
4.7933936
5.6098772
6.4878393
7.4043341
8.3343419
9.3022132
10.422791
11.753038
13.213243
14.728384
16.27973
17.872444
19.467455
21.005717
22.497128
23.974779
0.043478716
0.12117912
0.27748684
0.50985267
0.81112505
1.1626638
1.5517997
1.9582784
2.3602765
2.8042382
3.3597974
4.027475
4.7715248
5.5815582
6.449059
7.3540146
8.2789803
9.2330172
10.322818
11.629577
13.071761
14.562174
16.093182
17.664972
19.240236
20.768843
22.245175
23.704923
0.043962446
0.12103593
0.2761155
0.50673178
0.80643401
1.1581085
1.5495968
1.9590283
2.3610176
2.8003862
3.3501295
4.012934
4.7524442
5.5542103
6.4084906
7.3042292
8.2264441
9.1660951
10.224821
11.508169
12.932369
14.397658
15.908845
17.46101
19.016571
20.534138
21.99484
23.434668
0.044484373
0.12096758
0.27489585
0.50388546
0.80215343
1.1541403
1.5484066
1.9596749
2.3596757
2.7957133
3.3417014
4.0002752
4.7340532
5.5255879
6.3683156
7.2575813
8.174367
9.0962747
10.128601
11.391581
12.79637
14.238779
15.726942
17.253539
18.793914
20.304567
21.748302
23.166183
0.045049394
0.12098656
0.27385406
0.50135551
0.79834202
1.1508767
1.5469767
1.9583299
2.3572064
2.7918681
3.3347955
3.9896537
4.7163378
5.495539
6.32828
7.2128268
8.1229462
9.0257878
10.032552
11.273491
12.655841
14.07919
15.547457
17.047532
18.573703
20.079263
21.506299
22.901252
0.045649998
0.12107608
0.27294861
0.49904653
0.79480785
1.1472025
1.5437738
1.9555533
2.3549411
2.7891539
3.3299138
3.9790745
4.6954258
5.4646334
6.2904595
7.1675866
8.0672221
8.9567754
9.9448781
11.158824
12.514092
13.920194
15.371136
16.847093
18.352509
19.844713
21.262945
22.64197
0.046268852
0.12118714
0.27205842
0.49669136
0.7908551
1.1424236
1.539424
1.9524017
2.3529524
2.7872735
3.3252328
3.9668695
4.6732567
5.4345139
6.2545586
7.1234506
8.0112281
8.8923884
9.8650501
11.047136
12.375488
13.764213
15.193948
16.648099
18.131056
19.604399
21.017146
22.384961
0.046893745
0.12128076
0.27107998
0.49410817
0.7864912
1.1371762
1.5348289
1.9494097
2.3515779
2.7863738
3.3202692
3.9530236
4.6516404
5.4074992
6.2200233
7.0775713
7.9553325
8.8321468
9.788934
10.936984
12.239828
13.610241
15.01519
16.449151
17.911494
19.365567
20.769298
22.122386
0.047523817
0.12135405
0.27004314
0.49144457
0.78204721
1.1319055
1.5304296
1.9469346
2.3512912
2.7850874
3.3124526
3.9382884
4.6318037
5.3825808
6.1865453
7.0308002
7.8996895
8.7732381
9.7135465
10.828873
12.107359
13.459172
14.838688
16.251534
17.692836
19.127672
20.520813
21.857245
0.048175357
0.12145261
0.26904545
0.48885579
0.7777306
1.1268595
1.5264869
1.9453964
2.3505267
2.7810159
3.3034598
3.9248875
4.6141571
5.3576941
6.1498927
6.9837821
7.8473394
8.7149171
9.6359466
10.722779
11.977915
13.307679
14.665201
16.055828
17.470594
18.889784
20.27582
21.595054
0.048860516
0.12160276
0.26813926
0.48642741
0.77366122
1.1221856
1.5231991
1.9433552
2.3473515
2.775658
3.2950344
3.9124232
4.5968498
5.3316008
6.1120894
6.9372347
7.7957573
8.6565991
9.5585892
10.618099
11.848651
13.154143
14.491444
15.861484
17.249379
18.653929
20.034473
21.336758
0.049581957
0.1218105
0.26733501
0.4841711
0.76984566
1.1178074
1.5189659
1.9387498
2.342828
2.7707761
3.2875765
3.901532
4.5794141
5.3029326
6.0740068
6.8932894
7.7438646
8.5944965
9.4809277
10.516506
11.722031
13.003593
14.321576
15.672442
17.035154
18.416597
19.781524
21.075682
0.050329793
0.12205271
0.26657564
0.48195802
0.76595597
1.1125587
1.5128539
1.9328859
2.3383325
2.7665635
3.281561
3.8903631
4.5588793
5.2731659
6.037599
6.85038
7.6919922
8.5328899
9.4056179
10.415196
11.592404
12.854959
14.153791
15.479725
16.820724
18.179804
19.524578
20.812493
0.051087762
0.12228823
0.26575851
0.47955292
0.76156002
1.1064289
1.5059393
1.9267043
2.3339785
2.7630628
3.2755173
3.8771529
4.5368547
5.2442102
6.0032065
6.807221
7.6368154
8.4705307
9.3321249
10.315194
11.46335
12.706571
13.985795
15.285902
16.605895
17.94379
19.268889
20.548315
0.05184635
0.1224871
0.2648268
0.47693797
0.75686246
1.0999635
1.4987922
1.9205204
2.3300083
2.7596831
3.2677697
3.8615669
4.5145644
5.2165881
5.9686764
6.7618856
7.5807696
8.4096242
9.2576389
10.211142
11.334173
12.561001
13.819639
15.094772
16.392547
17.707227
19.014308
20.284483
0.052614387
0.12267673
0.26386061
0.47426841
0.75209345
1.0934351
1.4916793
1.9145954
2.3261667
2.7546698
3.2571165
3.8449763
4.4930621
5.190108
5.9338069
6.7140816
7.5238463
8.349593
9.1830496
10.106295
11.205944
12.414588
13.649056
14.903565
16.18048
17.468609
18.760506
20.024292
0.053407131
0.12289341
0.26292841
0.47165194
0.74740703
1.087038
1.4848209
1.9087052
2.3207742
2.7470377
3.2454713
3.829019
4.4728052
5.1626685
5.8947336
6.6644859
7.4682084
8.2878374
9.1032107
9.9983126
11.077277
12.267853
13.47819
14.712942
15.970339
17.233326
18.505883
19.758411
0.054226213
0.12314264
0.26204239
0.46910494
0.74281219
1.0807501
1.4775962
1.9009742
2.3129385
2.7383292
3.2338031
3.8132479
4.4515094
5.1319504
5.8528045
6.6136344
7.4115531
8.2232098
9.0252866
9.9012389
10.951673
12.114619
13.305783
14.523245
15.759614
16.99981
18.249399
19.48423
0.055062492
0.12340474
0.26115768
0.46653404
0.73811378
1.0738695
1.4686378
1.8911257
2.3040702
2.729484
3.2223607
3.7976545
4.4286619
5.0986037
5.8105394
6.5648379
7.3546335
8.1555737
8.9487657
9.8099551
10.829909
11.962165
13.134412
14.332843
15.544568
16.764047
17.992372
19.208305
0.055902544
0.12364743
0.26019591
0.46375939
0.73292031
1.0660041
1.458426
1.8803673
2.2948349
2.7207431
3.2115783
3.7811
4.4025091
5.0638997
5.7693561
6.5164148
7.2968936
8.0875866
8.8735554
9.7190041
10.706743
11.810342
12.965385
14.144132
15.330593
16.529415
17.737349
18.934931
0.056737601
0.12384329
0.25909656
0.46072118
0.7273308
1.0576442
1.4477378
1.8693027
2.2855818
2.7125421
3.1997908
3.7610121
4.3747755
5.0303415
5.7298882
6.4679194
7.2366625
8.0196447
8.8009594
9.6289676
10.583188
11.660981
12.798199
13.953989
15.119284
16.298239
17.482705
18.661123
0.057575623
0.12401792
0.25794022
0.45759433
0.72162699
1.0491605
1.4369767
1.8582735
2.2766592
2.7031782
3.1846082
3.7392532
4.3478215
4.9981392
5.6901867
6.4168966
7.175012
7.9519326
8.7278242
9.5371569
10.460055
11.514411
12.632464
13.763724
14.908734
16.067635
17.227061
18.384816
0.058431154
0.1242055
0.25679
0.45447022
0.71592739
1.0406876
1.4262589
1.8472525
2.266242
2.690577
3.1675713
3.7175233
4.3213155
4.9659175
5.6486108
6.3637007
7.1125698
7.8841134
8.6538121
9.4435871
10.337549
11.369005
12.465936
13.574406
14.700911
15.83968
16.973834
18.110106
0.059307199
0.12441215
0.25565651
0.45136093
0.71023366
1.0321901
1.415206
1.8346243
2.2532587
2.6765397
3.1503659
3.6959687
4.2953663
4.932671
5.6040139
6.3093959
7.0512709
7.8150304
8.5757498
9.3488626
10.217518
11.224428
12.298115
13.386903
14.494131
15.608785
16.722244
17.837809
0.060196705
0.12462519
0.25451329
0.44821205
0.70442657
1.023245
1.4028612
1.8202105
2.2391863
2.662235
3.1333191
3.6751011
4.2681477
4.8953549
5.5574374
6.2556905
6.9899959
7.7445809
8.4957685
9.2537578
10.097197
11.078346
12.130117
13.200768
14.288521
15.378831
16.472509
17.568846
0.061086977
0.12482071
0.25330563
0.44489529
0.69824847
1.0136065
1.3896012
1.8050218
2.2246272
2.6477789
3.1166303
3.6530275
4.2372805
4.8559977
5.5111481
6.2026991
6.9271947
7.6696497
8.4133802
9.1601057
9.9774203
10.929104
11.960943
13.015183
14.081918
15.150142
16.225254
17.301331
0.061964748
0.1249677
0.25197666
0.441365
0.69176625
1.0035812
1.3759203
1.7894189
2.2097094
2.6332768
3.0987352
3.6275567
4.2039593
4.8162537
5.4649469
6.1479734
6.8601086
7.5917634
8.3294659
9.0687095
9.8646589
10.782972
11.791256
12.828186
13.872412
14.921749
15.978138
17.030883
0.062837269
0.12508761
0.25058456
0.43772793
0.68516
0.99341108
1.3620166
1.7735115
2.1945583
2.617355
3.0774388
3.5995435
4.1700919
4.7765486
5.4183781
6.091268
6.7909015
7.5140459
8.2475889
8.9788771
9.7526462
10.639556
11.624554
12.642106
13.664007
14.695116
15.732699
16.762223
0.063719271
0.12521018
0.24918256
0.43406802
0.6785437
0.98321817
1.3480089
1.7572762
2.1777205
2.5982597
3.053991
3.5710858
4.1363345
4.7374007
5.3709426
6.0318806
6.7211292
7.4382537
8.1657159
8.8866716
9.6409966
10.500115
11.459603
12.454667
13.457305
14.471221
15.487614
16.495923
0.064610166
0.12533592
0.24777216
0.43038242
0.67187746
0.97290423
1.3335317
1.7395471
2.1586386
2.5776745
3.0300454
3.542562
4.1030549
4.6969693
5.3197375
5.970916
6.6524335
7.3632169
8.0832818
8.7933253