/*--------------------------------*- C++ -*----------------------------------*\
  =========                 |
  \\      /  F ield         | OpenFOAM: The Open Source CFD Toolbox
   \\    /   O peration     | Website:  https://openfoam.org
    \\  /    A nd           | Version:  7
     \\/     M anipulation  |
\*---------------------------------------------------------------------------*/
FoamFile
{
    version     2.0;
    format      ascii;
    class       volScalarField;
    location    "50000";
    object      YCH2O;
}
// * * * * * * * * * * * * * * * * * * * * * * * * * * * * * * * * * * * * * //

dimensions      [0 0 0 0 0 0 0];

internalField   nonuniform List<scalar> 
113400
(
4.8083966e-08
4.8083965e-08
4.8083965e-08
4.8083965e-08
4.348419e-08
4.2055486e-08
3.9928126e-08
3.6564199e-08
3.1042588e-08
2.1240746e-08
1.8422485e-08
1.9363743e-08
2.3948317e-08
4.8032881e-08
4.7731025e-05
4.9070082e-05
5.1471442e-05
6.2597468e-05
6.6969887e-05
7.9678088e-05
9.6663263e-05
0.00012554174
0.00016877148
0.0002437284
0.00018865497
9.7850466e-05
8.1511195e-06
8.7103957e-06
4.7032662e-08
4.6109985e-08
4.460727e-08
4.291045e-08
4.0117366e-08
3.6325944e-08
3.1460083e-08
2.5096063e-08
2.4912252e-08
2.4176893e-08
2.4024812e-08
3.4481728e-08
9.7837687e-06
5.7144405e-05
6.1755057e-05
6.5135648e-05
6.8608913e-05
8.0812184e-05
9.0114714e-05
0.00010520038
0.00012867017
0.00016058583
0.00019322984
0.00023831027
0.00028058149
0.00031110105
0.00032356783
0.00032078792
4.694787e-08
4.5360007e-08
4.2675175e-08
3.9318636e-08
3.5222416e-08
2.9995481e-08
2.6576089e-08
2.6786426e-08
2.6925192e-08
2.8310946e-08
3.2577283e-08
8.5312288e-07
3.623074e-05
7.9849351e-05
7.0326149e-05
6.8256241e-05
8.0125221e-05
8.4756005e-05
0.00010064344
0.00011824037
0.00014206037
0.00017079619
0.00020044202
0.00022646864
0.00025370705
0.00027561928
0.00029036872
0.00029798388
4.6787704e-08
4.4594158e-08
4.0910194e-08
3.6170344e-08
3.109664e-08
2.8353056e-08
2.7772713e-08
2.8412433e-08
2.9101853e-08
3.1442239e-08
4.3711541e-08
2.1236233e-05
7.159306e-05
6.8869285e-05
7.5082412e-05
7.3595641e-05
9.0039512e-05
9.6023901e-05
0.0001120445
0.00013031442
0.00015355232
0.00017811408
0.00020559343
0.00023005765
0.00025084275
0.00026828065
0.00028235056
0.00029273586
4.6693551e-08
4.4058638e-08
3.9781551e-08
3.4960782e-08
3.2102732e-08
2.9944714e-08
3.0289945e-08
3.044015e-08
3.1679429e-08
3.8713805e-08
6.552457e-06
4.1200764e-05
8.3100204e-05
7.4082115e-05
7.6212481e-05
8.2335237e-05
9.419994e-05
0.00010437415
0.0001208248
0.00013850877
0.00015972989
0.00018189195
0.00020329432
0.00022569184
0.00024598165
0.0002633465
0.00027732009
0.00028777503
4.6764316e-08
4.4074619e-08
3.9816413e-08
3.751091e-08
3.3937908e-08
3.3466664e-08
3.2124592e-08
3.2623177e-08
3.5955818e-08
4.6383435e-08
2.033355e-05
6.5496898e-05
7.4487555e-05
7.719304e-05
7.3443729e-05
9.0056407e-05
9.7674632e-05
0.00011183939
0.00012836778
0.00014510939
0.00016505566
0.00018546786
0.00020512976
0.00022336172
0.00024012533
0.0002558066
0.00026874956
0.00027860574
4.7005278e-08
4.5014941e-08
4.1969059e-08
3.8709328e-08
3.6895137e-08
3.4700597e-08
3.442665e-08
3.6204972e-08
4.116002e-08
6.2455225e-06
3.4326797e-05
9.3296302e-05
7.639316e-05
8.0706103e-05
7.8324825e-05
9.692182e-05
0.00010191904
0.00011818055
0.00013450411
0.00015119368
0.00016923487
0.00018788437
0.00020631443
0.00022337828
0.0002387004
0.00025197759
0.00026289532
0.00027118536
4.7298876e-08
4.5736305e-08
4.443508e-08
4.0732863e-08
3.8142304e-08
3.7131893e-08
3.7176425e-08
3.8755897e-08
4.685735e-08
1.8464744e-05
5.1898396e-05
9.4446076e-05
8.1480885e-05
8.273378e-05
8.5145635e-05
0.00010239594
0.00010672332
0.0001237642
0.00013980287
0.0001564575
0.00017267136
0.00019042304
0.0002074202
0.00022352571
0.00023796547
0.00025044731
0.00026073593
0.00026858101
4.7802125e-08
4.7214551e-08
4.4897104e-08
4.243397e-08
4.0269084e-08
3.8968797e-08
3.9616044e-08
4.4211848e-08
5.1251167e-06
3.1817073e-05
7.8173202e-05
8.8086023e-05
8.495112e-05
8.341509e-05
9.1606517e-05
0.00010695275
0.00011222544
0.00012899682
0.00014444148
0.00016094324
0.00017661759
0.00019257758
0.00020864885
0.00022373129
0.00023751783
0.00024936214
0.00025908142
0.00026653106
4.7881252e-08
4.7603008e-08
4.6718372e-08
4.3676525e-08
4.1718953e-08
4.1505244e-08
4.2525789e-08
4.7002255e-08
1.485871e-05
4.2448444e-05
0.00010670907
8.601378e-05
8.898523e-05
8.2416656e-05
9.7539844e-05
0.00011158195
0.00011700044
0.00013348055
0.00014864221
0.00016445042
0.00017986252
0.00019440397
0.00020943519
0.00022367282
0.00023673658
0.00024838898
0.00025772604
0.00026482326
4.8010032e-08
4.7966811e-08
4.6608601e-08
4.4812095e-08
4.3714406e-08
4.3147992e-08
4.5970027e-08
3.1717724e-06
2.5849204e-05
5.8182079e-05
0.00011357519
9.204164e-05
9.2931631e-05
8.6196244e-05
0.00010315727
0.00011606566
0.00012138943
0.00013750452
0.00015247322
0.00016746388
0.00018247844
0.00019669549
0.00021000669
0.00022355143
0.00023585869
0.00024682531
0.00025627443
0.00026346111
4.7984158e-08
4.7851651e-08
4.7318368e-08
4.5980085e-08
4.4579136e-08
4.6140716e-08
4.7294762e-08
1.1215397e-05
3.7497688e-05
8.4122406e-05
0.00011154684
9.7124098e-05
9.653737e-05
9.2071376e-05
0.00010867358
0.00012070953
0.00012593865
0.00014136424
0.0001560607
0.00017023956
0.00018483314
0.00019865471
0.00021140414
0.00022348842
0.00023516803
0.00024547724
0.00025429101
0.00026143846
4.7952312e-08
4.791515e-08
4.7564112e-08
4.6278109e-08
4.6839606e-08
4.6787511e-08
4.8036474e-08
1.9517597e-05
4.8415976e-05
0.00011170157
0.00010652183
0.00010105426
9.926963e-05
9.7740585e-05
0.00011399686
0.00012541411
0.0001309117
0.00014492521
0.00015928751
0.00017291509
0.00018685595
0.00020024192
0.00021257862
0.00022390507
0.00023452068
0.00024429625
0.00025257678
0.00025922324
4.7909989e-08
4.7873479e-08
4.7522052e-08
4.7479856e-08
4.7069507e-08
4.7539651e-08
6.5573019e-06
2.8031074e-05
6.2557638e-05
0.00013582617
0.00010440621
0.00010447965
0.00010141722
0.00010310291
0.00011897202
0.0001299983
0.00013573541
0.00014818007
0.00016219811
0.00017550858
0.00018860483
0.0002015815
0.00021352912
0.00022437677
0.00023423755
0.00024323273
0.00025108118
0.00025731771
4.7859892e-08
4.7825678e-08
4.7733206e-08
4.7494828e-08
4.7351051e-08
4.7756846e-08
1.2459905e-05
3.837868e-05
8.0569295e-05
0.00014019375
0.00011028097
0.00010899591
0.00010388657
0.00010814771
0.00012337328
0.00013436889
0.00014028483
0.00015100228
0.00016482039
0.00017778156
0.00019010182
0.00020269779
0.00021428403
0.00022469351
0.00023411765
0.00024245536
0.00024973452
0.00025565224
4.7799925e-08
4.7756443e-08
4.7648954e-08
4.7466488e-08
4.749687e-08
4.7373204e-08
1.9706344e-05
4.9767494e-05
0.00010249805
0.00014110477
0.00011580047
0.00011368826
0.00010689764
0.00011315207
0.00012774392
0.00013883507
0.0001448362
0.00015377002
0.00016736765
0.00017993976
0.0001918961
0.0002037295
0.00021497355
0.00022497258
0.00023399013
0.00024192668
0.00024868701
0.00025420207
4.7726108e-08
4.7662824e-08
4.7539804e-08
4.7377423e-08
4.7309581e-08
4.6673962e-06
2.7626715e-05
6.3660812e-05
0.00012682896
0.00013937969
0.00012060012
0.00011811918
0.00011022015
0.00011810539
0.00013208314
0.00014331707
0.00014933854
0.00015649936
0.00016987249
0.0001820406
0.00019365117
0.00020473196
0.000215649
0.00022525713
0.00023389807
0.00024146448
0.00024787408
0.00025290973
4.7643831e-08
4.7553038e-08
4.7398612e-08
4.7186413e-08
4.6957253e-08
8.6788297e-06
3.6087592e-05
7.6990127e-05
0.00015213872
0.00013528833
0.00012436272
0.00012213212
0.00011393814
0.00012273656
0.00013617919
0.00014741389
0.00015363062
0.00015904283
0.00017213739
0.00018397998
0.00019523846
0.00020587267
0.00021623084
0.00022548263
0.00023378306
0.00024102412
0.00024713258
0.00025173057
4.7554787e-08
4.7429507e-08
4.7229022e-08
4.6950041e-08
4.6586431e-08
1.2530894e-05
4.3816577e-05
8.9103362e-05
0.00017131195
0.00013087681
0.00012853813
0.0001265186
0.00011783757
0.00012674493
0.00013990057
0.0001512109
0.00015755131
0.00016258978
0.00017405362
0.00018566714
0.00019656815
0.0002068937
0.00021662567
0.00022556538
0.00023357083
0.00024053881
0.00024640437
0.00025061544
4.7449109e-08
4.7275947e-08
4.7048311e-08
4.6697607e-08
4.6213983e-08
1.6953391e-05
5.1643464e-05
0.00010274594
0.00017623213
0.00013551514
0.00013325866
0.00013103457
0.00012213201
0.00013060231
0.00014347337
0.00015491066
0.00016126512
0.00016638522
0.00017578495
0.00018719684
0.00019775139
0.00020777648
0.00021710214
0.00022557353
0.00023331927
0.00024005177
0.0002456965
0.00024957777
4.7330774e-08
4.7119136e-08
4.6860233e-08
4.6435217e-08
4.584359e-08
2.1661968e-05
6.023801e-05
0.00011956396
0.00017964439
0.00014165167
0.0001380217
0.00013578785
0.00012667307
0.00013443291
0.0001470321
0.00015861876
0.00016492894
0.00017005874
0.00017746276
0.00018868325
0.00019890014
0.000208627
0.00021767178
0.00022558847
0.00023309467
0.00023961819
0.00024493868
0.00024864308
4.7207256e-08
4.6956275e-08
4.6664941e-08
4.6164761e-08
4.5483767e-08
2.6479852e-05
6.8728229e-05
0.0001375193
0.00018244476
0.00014777132
0.00014314343
0.00014074694
0.00013138307
0.00013820305
0.0001505596
0.00016191038
0.00016853594
0.0001736248
0.00017911606
0.00019015556
0.00020003612
0.00020946746
0.00021823096
0.00022579071
0.00023290421
0.00023924079
0.00024425499
0.00024780526
4.7078903e-08
4.6788008e-08
4.6462855e-08
4.58879e-08
4.5188489e-08
3.1757461e-05
7.7686162e-05
0.00015591533
0.00018530576
0.00015370362
0.00014860697
0.00014578742
0.00013615597
0.00014193427
0.00015405385
0.00016491785
0.00017201531
0.00017713171
0.00018176619
0.00019163725
0.00020121029
0.00021033656
0.00021881684
0.00022610604
0.00023276626
0.00023893002
0.00024365214
0.00024706364
4.6945684e-08
4.6614458e-08
4.6253439e-08
4.5612024e-08
4.4884262e-08
3.7654961e-05
8.7488522e-05
0.00017501664
0.00018874681
0.0001595961
0.00015413557
0.00015090706
0.00014108959
0.00014567051
0.00015736345
0.00016793808
0.00017549344
0.00018055552
0.00018516858
0.00019309884
0.00020240642
0.00021123616
0.0002194349
0.00022645394
0.00023285015
0.00023868169
0.00024312964
0.00024641365
4.6807218e-08
4.6430071e-08
4.6014995e-08
4.5333279e-08
1.9045144e-06
4.3932427e-05
9.8348132e-05
0.0001950452
0.00019231587
0.00016566789
0.00015980821
0.00015619424
0.00014628854
0.00014944259
0.00016064812
0.0001709871
0.00017895198
0.00018390894
0.00018843335
0.00019453924
0.0002035984
0.00021214581
0.00022007249
0.00022682822
0.0002330013
0.00023849763
0.00024267637
0.00024584274
4.6624392e-08
4.620369e-08
4.5765328e-08
4.5054154e-08
4.3710404e-06
5.0386803e-05
0.00011045666
0.00021534564
0.00019613052
0.00017187972
0.00016547416
0.00016150103
0.00015157489
0.00015322644
0.00016395994
0.00017406166
0.00018240929
0.00018723485
0.0001916422
0.00019599457
0.00020481177
0.00021307124
0.00022072703
0.00022722398
0.00023317785
0.00023846356
0.00024227684
0.00024533751
4.6428072e-08
4.597257e-08
4.5512908e-08
4.4774998e-08
6.545571e-06
5.6906791e-05
0.00012296479
0.00023556628
0.00020092913
0.00017824505
0.00017127849
0.00016668068
0.00015699354
0.00015697362
0.00016725047
0.00017713579
0.00018586071
0.00019056873
0.00019473656
0.00019903162
0.00020601598
0.00021404156
0.00022141728
0.00022765285
0.00023339327
0.00023841035
0.00024197933
0.00024489434
4.6227317e-08
4.5737372e-08
4.5257782e-08
4.449377e-08
8.6793257e-06
6.3900413e-05
0.00013527099
0.00025155077
0.00020673223
0.00018473367
0.00017726923
0.00017205001
0.00016263057
0.00016067975
0.00017050864
0.00018018628
0.00018902001
0.00019381833
0.00019769373
0.00020190443
0.00020718741
0.00021500779
0.00022212558
0.00022811134
0.00023364741
0.00023840494
0.00024181157
0.00024451209
4.6022697e-08
4.5498694e-08
4.5000439e-08
4.4211548e-08
1.0747781e-05
7.0724753e-05
0.0001468969
0.00026185704
0.0002133539
0.00019142035
0.00018339385
0.00017754828
0.00016841941
0.00016427124
0.00017374327
0.00018323012
0.00019155626
0.00019703085
0.00020056027
0.0002046858
0.00020836722
0.00021599244
0.00022286796
0.00022859625
0.00023393242
0.00023843995
0.00024168604
0.00024424254
4.5814543e-08
4.5256879e-08
4.4740808e-08
4.3927834e-08
1.305233e-05
7.7523441e-05
0.00015719959
0.00027020719
0.00022007171
0.0001982764
0.00018940488
0.00018312761
0.00017433755
0.00016772832
0.00017700626
0.00018627645
0.00019411637
0.00020020626
0.00020343949
0.00020738136
0.00021058568
0.00021699428
0.0002236804
0.00022913237
0.00023426373
0.00023852569
0.00024160861
0.00024405167
4.5602904e-08
4.5011942e-08
4.4478631e-08
4.3641547e-08
1.5190787e-05
8.3386238e-05
0.00016709498
0.00027865886
0.00022693015
0.00020533445
0.00019538382
0.00018888142
0.00018036349
0.00017121166
0.00018031602
0.00018908258
0.00019670602
0.00020322204
0.00020628779
0.00020995339
0.00021310419
0.00021797396
0.00022451677
0.0002296985
0.00023462936
0.00023865579
0.00024157816
0.00024390667
4.5388102e-08
4.4764167e-08
4.4214419e-08
4.335371e-08
1.6983441e-05
8.8579358e-05
0.00017675549
0.00028726453
0.00023402659
0.00021251843
0.00020153045
0.00019481087
0.00018655452
0.00017473631
0.00018368292
0.00019194478
0.00019934343
0.00020624674
0.00020911222
0.00021245913
0.00021553975
0.00021895103
0.00022536906
0.0002302826
0.0002350163
0.00023881628
0.00024158061
0.00024379612
4.5170427e-08
4.4513807e-08
4.3948453e-08
4.3065206e-08
1.8370414e-05
9.3596704e-05
0.0001864566
0.00029583126
0.00024152486
0.00021935009
0.00020782202
0.00020080619
0.00019283191
0.00017842485
0.00018712185
0.00019486234
0.00020203049
0.00020916469
0.00021192976
0.00021495555
0.00021791168
0.00022055693
0.00022623657
0.00023090751
0.00023543553
0.00023901206
0.00024161673
0.00024371831
4.4950181e-08
4.4261141e-08
4.3679183e-08
4.2774199e-08
1.9521532e-05
9.854114e-05
0.00019617314
0.00030446502
0.0002494653
0.00022625125
0.0002142838
0.00020704085
0.0001988445
0.00018491948
0.00019057547
0.00019783495
0.00020479562
0.00021139916
0.00021478549
0.00021742712
0.00022019982
0.00022263163
0.00022709357
0.00023158394
0.00023588225
0.00023924212
0.00024168624
0.00024367255
4.4715305e-08
4.39906e-08
4.3391337e-08
4.2482578e-08
2.0504796e-05
0.00010348043
0.00020615762
0.00031333261
0.00025732213
0.00023335295
0.00022097248
0.00021343194
0.00020482554
0.00019134287
0.00019404538
0.00020084679
0.00020762478
0.000213702
0.0002176889
0.00021989447
0.00022245804
0.00022464464
0.00022796125
0.00023228253
0.00023635072
0.00023950224
0.00024178501
0.00024365444
4.4432753e-08
4.3701572e-08
4.3102152e-08
4.2190268e-08
2.132592e-05
0.00010843878
0.00021648906
0.00032248877
0.00026516211
0.00024062616
0.00022794558
0.0002198775
0.000210659
0.00019775191
0.0001974942
0.00020389214
0.00021049991
0.00021605238
0.00022064996
0.00022237998
0.00022474455
0.00022663397
0.00022921699
0.00023301269
0.00023686242
0.00023980434
0.00024191889
0.00024366604
4.4147622e-08
4.3410346e-08
4.2811469e-08
4.1896912e-08
2.1987895e-05
0.0001136561
0.00022656224
0.00033023955
0.00027338359
0.00024795
0.00023498283
0.00022605199
0.00021644956
0.00020416877
0.00020070181
0.00020698124
0.00021339626
0.00021842689
0.00022361974
0.00022486106
0.00022705096
0.00022856902
0.00023096362
0.00023375008
0.00023741579
0.00024015198
0.00024209157
0.00024370979
4.3859933e-08
4.3116912e-08
4.2519172e-08
4.1602415e-08
2.2466992e-05
0.00011908571
0.00023632025
0.00033721349
0.00028187746
0.00025530505
0.00024215752
0.00023200586
0.00022231829
0.00021061054
0.00020395285
0.00021010356
0.00021629724
0.00022081203
0.00022613481
0.0002273065
0.00022929949
0.0002304419
0.00023260342
0.00023448994
0.00023797963
0.00024052512
0.00024228899
0.00024377507
4.3569743e-08
4.2821265e-08
4.2225131e-08
4.1306748e-08
2.2948484e-05
0.00012404025
0.00024186495
0.00034464995
0.00029043884
0.00026272956
0.00024941674
0.00023804915
0.00022824422
0.00021707308
0.00020722974
0.00021327102
0.00021889767
0.00022323169
0.00022831091
0.00022972364
0.00023150024
0.00023227561
0.00023418886
0.00023538978
0.00023857808
0.00024092558
0.00024250654
0.00024385554
4.32773e-08
4.2523628e-08
4.1929917e-08
4.1010576e-08
2.2923416e-05
0.00012739504
0.00024633151
0.00035226656
0.00029894442
0.00027025489
0.00025621143
0.00024413301
0.00023413848
0.00022350714
0.00021053184
0.00021648856
0.00022154872
0.0002257069
0.00023033127
0.00023215642
0.00023356174
0.00023410517
0.00023568399
0.000236712
0.00023915646
0.00024135485
0.00024274515
0.00024392647
4.298276e-08
4.2224091e-08
4.1633474e-08
4.0713643e-08
2.2255757e-05
0.00012928786
0.00025046448
0.00035991029
0.00030738483
0.00027791583
0.00026272026
0.00025028645
0.0002401106
0.00022963901
0.00021435312
0.00021975283
0.00022424623
0.00022822218
0.00023230862
0.00023461468
0.00023554263
0.00023588867
0.00023710048
0.00023794941
0.00023970164
0.00024177446
0.00024298098
0.00024399956
4.2686381e-08
4.1922867e-08
4.13361e-08
4.0417534e-08
2.0820151e-05
0.00013076771
0.000254483
0.0003675552
0.00031587105
0.00028541311
0.00026933927
0.00025656604
0.00024629094
0.00023568932
0.00022082097
0.00022304545
0.00022702008
0.00023079102
0.00023431506
0.00023707436
0.00023748529
0.00023764086
0.00023847776
0.00023915851
0.00024025071
0.00024220701
0.00024322288
0.00024408441
4.2388365e-08
4.1620153e-08
4.1035525e-08
4.0124482e-08
1.9026099e-05
0.00013209552
0.00025858479
0.00037506038
0.0003245588
0.00029192607
0.00027605797
0.00026283639
0.00025245263
0.00024159665
0.0002270243
0.00022633912
0.00022980709
0.00023338321
0.00023637616
0.00023893192
0.00023945536
0.00023938497
0.00023986576
0.00024032655
0.00024110068
0.00024264158
0.00024349791
0.00024419954
4.2069784e-08
4.1305568e-08
4.0729063e-08
3.9830352e-08
1.6988652e-05
0.00013335296
0.00026288253
0.00038259445
0.00033277829
0.00029854978
0.00028279122
0.00026911498
0.00025828754
0.0002473407
0.00023306577
0.00022940387
0.00023261286
0.00023599796
0.00023847373
0.00024082603
0.00024145025
0.00024113631
0.00024123806
0.00024146218
0.00024194362
0.00024307068
0.00024377848
0.00024433251
4.1735485e-08
4.0988931e-08
4.042072e-08
3.9534239e-08
1.4857913e-05
0.00013473751
0.00026782653
0.0003902214
0.00033904441
0.00030522808
0.00028942469
0.00027543208
0.00026358469
0.00025261842
0.00023903414
0.00023230785
0.00023544499
0.00023862721
0.00024058096
0.00024274239
0.00024342733
0.00024287484
0.0002425827
0.00024257738
0.00024275978
0.00024350777
0.00024406288
0.00024447759
4.1398956e-08
4.0669904e-08
4.0110145e-08
3.9235774e-08
1.2617062e-05
0.00013633599
0.00027262353
0.00039542507
0.00034532665
0.00031193538
0.00029605067
0.00028179626
0.00026890589
0.00025785574
0.00024500391
0.00023524847
0.00023830157
0.00024129451
0.00024268073
0.00024466124
0.00024536407
0.0002445875
0.0002438983
0.00024368308
0.00024355183
0.00024399796
0.00024435518
0.00024463245
4.1060203e-08
4.0348525e-08
3.9797418e-08
3.8935169e-08
1.0220803e-05
0.00013804949
0.0002767453
0.00039852487
0.00035149011
0.00031861211
0.00030270113
0.00028763542
0.00027420494
0.00026302757
0.00025090328
0.00023821246
0.00024119282
0.00024364259
0.00024478336
0.00024657759
0.00024714075
0.00024627409
0.00024517995
0.00024478474
0.00024429443
0.00024457459
0.00024463621
0.00024477693
4.0719141e-08
4.0024659e-08
3.9482245e-08
3.8632041e-08
7.8422018e-06
0.00013930517
0.00027585799
0.00040169569
0.00035737472
0.00032525902
0.00030941409
0.00029288898
0.00027949894
0.00026818733
0.00025646495
0.00024122301
0.00024412834
0.00024594441
0.00024688528
0.00024850623
0.00024853123
0.00024793481
0.00024639279
0.00024583247
0.00024497834
0.00024510318
0.00024489438
0.00024490477
4.037598e-08
3.9698516e-08
3.916503e-08
3.8326934e-08
4.8797681e-06
0.00013784894
0.00027434746
0.00040476698
0.00036303014
0.00033191634
0.00031598336
0.00029817928
0.00028482559
0.00027347514
0.00026165088
0.00024656212
0.00024706865
0.00024829958
0.00024903142
0.00025021926
0.00024994144
0.00024957181
0.00024756186
0.00024684219
0.00024562208
0.00024560442
0.0002451423
0.00024501889
4.0030945e-08
3.9370349e-08
3.8844373e-08
3.8020384e-08
1.4016592e-06
0.0001355315
0.00027277623
0.00040766823
0.00036839025
0.00033869362
0.00032103657
0.00030351739
0.00029007975
0.00027869952
0.00026663562
0.0002518466
0.00024999352
0.00025065679
0.00025120523
0.00025184301
0.00025137638
0.00025113359
0.00024870656
0.00024783327
0.00024624696
0.00024608491
0.00024538569
0.00024513212
3.9684055e-08
3.904014e-08
3.8521366e-08
3.7721091e-08
3.6847378e-08
0.00013303388
0.0002714289
0.00041039751
0.00037357032
0.00034527264
0.0003260643
0.00030888444
0.00029527105
0.00028357626
0.00027143621
0.00025690895
0.0002528515
0.00025299931
0.00025338209
0.00025346233
0.00025283176
0.00025246703
0.00024985001
0.00024869876
0.00024687764
0.00024640651
0.00024557232
0.00024522705
3.9331287e-08
3.8702159e-08
3.8194934e-08
3.7423242e-08
3.6571282e-08
0.00013056827
0.00027059344
0.00041280515
0.00037860176
0.0003497507
0.00033101051
0.00031404173
0.00030039818
0.00028764447
0.00027609878
0.00026182409
0.00025522905
0.00025534046
0.00025554224
0.00025505935
0.00025428453
0.0002537325
0.00025097245
0.00024944711
0.00024748892
0.00024669576
0.00024573651
0.00024530662
3.8971342e-08
3.8359132e-08
3.7866657e-08
3.7123396e-08
3.629301e-08
0.0001281836
0.00027020769
0.00041511494
0.00038190511
0.00035423089
0.00033586528
0.00031907529
0.00030546128
0.00029161545
0.00028067164
0.00026664138
0.00025762062
0.00025768308
0.00025773547
0.00025662322
0.00025574491
0.00025463387
0.00025208144
0.00025014553
0.00024806922
0.00024695413
0.00024588338
0.00024537722
3.860982e-08
3.8014585e-08
3.7536355e-08
3.6820866e-08
3.6011781e-08
0.0001259797
0.00027039481
0.00041735531
0.00038276532
0.00035866854
0.00034056773
0.00032401305
0.00030972438
0.00029548808
0.00028462436
0.00027133093
0.0002600292
0.00026002295
0.00025984987
0.00025817368
0.0002572095
0.00025553809
0.00025318239
0.00025081925
0.00024863263
0.00024719231
0.00024601994
0.00024544769
3.824652e-08
3.7668263e-08
3.7203609e-08
3.6514913e-08
3.5726793e-08
0.00012424043
0.00027038872
0.00041429788
0.00038339552
0.00036300194
0.00034514788
0.00032888757
0.00031332656
0.00029927488
0.00028839031
0.00027555418
0.00026242742
0.00026236301
0.00026153121
0.00025971702
0.00025865467
0.00025644784
0.00025425542
0.00025146268
0.00024917915
0.00024741626
0.00024613556
0.00024540075
3.7881369e-08
3.7320054e-08
3.6868337e-08
3.6205576e-08
3.5438289e-08
0.00012223096
0.00026679184
0.00041083731
0.00038375119
0.00036717248
0.00034965374
0.00033329643
0.0003168594
0.00030297305
0.00029212699
0.0002793485
0.00026498418
0.00026472722
0.00026322039
0.000261257
0.00026008642
0.00025734322
0.00025528812
0.00025206402
0.00024969545
0.00024761175
0.00024621983
0.00024524146
3.7514467e-08
3.6970064e-08
3.6530754e-08
3.589324e-08
3.5147389e-08
0.00011858168
0.00026109358
0.00040717278
0.00038373482
0.00037086008
0.00035411666
0.00033621578
0.00032038999
0.00030660719
0.00029590341
0.00028294739
0.00026896994
0.00026707704
0.00026493637
0.00026282174
0.00026121278
0.00025823427
0.00025628209
0.00025262446
0.00025018183
0.00024777549
0.00024628272
0.00024506108
3.71459e-08
3.6618431e-08
3.6191104e-08
3.5578404e-08
3.4873118e-08
0.00011352504
0.0002553832
0.00040240427
0.00038342199
0.00037426445
0.00035791424
0.00033901205
0.00032382739
0.00031015327
0.00029910192
0.00028631466
0.00027264748
0.00026936567
0.00026661721
0.00026438518
0.00026221492
0.00025912743
0.00025721681
0.00025314821
0.0002506441
0.00024791491
0.00024633359
0.00024486756
3.6775594e-08
3.6265086e-08
3.5853355e-08
3.5281546e-08
3.4612364e-08
0.00010857164
0.00025001091
0.00039581712
0.00038286224
0.00037745602
0.0003597241
0.00034165682
0.000327089
0.00031359287
0.00030155312
0.0002894954
0.00027614877
0.00027101495
0.00026827095
0.00026590769
0.00026316764
0.00026002476
0.00025765456
0.00025365436
0.00025106476
0.00024801934
0.00024636586
0.00024465593
3.6411314e-08
3.5926807e-08
3.5536042e-08
3.4989083e-08
3.4348028e-08
0.0001039113
0.0002450485
0.00038990582
0.00038215549
0.00037866563
0.00036142979
0.00034413274
0.00033022244
0.00031691449
0.00030386065
0.00029254435
0.00027952954
0.00027265714
0.00026991345
0.00026741752
0.00026409763
0.00026092096
0.00025803599
0.00025415132
0.00025132116
0.00024810302
0.0002463832
0.00024441746
3.6050452e-08
3.5591363e-08
3.5216513e-08
3.4693434e-08
3.407992e-08
9.9602925e-05
0.00024056105
0.00038465989
0.00038105566
0.00037817061
0.00036300054
0.00034644761
0.00033328044
0.00031895656
0.00030605066
0.00029541921
0.00028275468
0.00027427489
0.00027153726
0.00026887114
0.00026500344
0.0002618059
0.00025840096
0.00025463073
0.00025142862
0.00024817535
0.00024621592
0.00024415785
3.5687481e-08
3.5253447e-08
3.4894494e-08
3.4394269e-08
3.380768e-08
9.5779656e-05
0.00023681284
0.00037963204
0.00037640174
0.00037742591
0.00036440508
0.00034863211
0.00033625311
0.00032063902
0.00030811087
0.00029818398
0.00028527006
0.00027587005
0.00027314644
0.00026980868
0.0002658945
0.00026266379
0.00025874027
0.00025507945
0.0002515049
0.00024822821
0.00024598207
0.00024388154
3.5322196e-08
3.491288e-08
3.4569769e-08
3.4091422e-08
3.3531246e-08
9.2491402e-05
0.0002330812
0.00037075924
0.00037155311
0.00037647352
0.00036565125
0.00035070542
0.00033804118
0.00032220148
0.000310034
0.00030085866
0.00028745556
0.00027746686
0.00027475181
0.00027075324
0.00026677245
0.00026350581
0.00025905414
0.00025549354
0.00025154561
0.00024825624
0.00024572158
0.00024358692
3.4954493e-08
3.4569594e-08
3.4242302e-08
3.3785058e-08
3.3250908e-08
8.9262977e-05
0.00022713873
0.00036043631
0.00036652556
0.00037536212
0.00036676737
0.00035268644
0.0003390109
0.00032365755
0.00031183268
0.0003034125
0.00028948546
0.00027908736
0.00027634401
0.00027166588
0.00026763945
0.00026404191
0.0002593503
0.00025586773
0.00025154749
0.00024825794
0.00024543361
0.00024327328
3.4584328e-08
3.4223573e-08
3.3912122e-08
3.3475397e-08
3.2967238e-08
8.5061085e-05
0.00021966151
0.00035017426
0.00036136014
0.00037415565
0.00036780625
0.00035304458
0.00033986787
0.00032494785
0.0003135494
0.00030458789
0.00029138539
0.00028068512
0.0002776274
0.0002725454
0.00026848416
0.00026437152
0.00025963312
0.00025617314
0.00025151109
0.00024822796
0.00024511554
0.00024293951
3.421173e-08
3.3874866e-08
3.3579333e-08
3.3164041e-08
3.2711069e-08
8.0250659e-05
0.00021219157
0.00034016628
0.0003560957
0.00037289888
0.00036877611
0.00035253775
0.00034062858
0.00032612642
0.00031519831
0.00030539136
0.00029317471
0.00028241579
0.00027850196
0.00027342254
0.00026930682
0.00026466651
0.00025991143
0.00025617553
0.00025144869
0.00024815995
0.00024476211
0.00024257898
3.3837664e-08
3.352503e-08
3.3250233e-08
3.2873883e-08
3.2462385e-08
7.5587018e-05
0.00020494065
0.00033049646
0.00035080454
0.00037155107
0.00036694004
0.00035192861
0.0003411862
0.00032722674
0.00031614441
0.0003061208
0.00029478708
0.00028451246
0.0002793404
0.00027430814
0.00027012894
0.00026494601
0.00026021229
0.00025603546
0.00025136531
0.00024804518
0.00024437659
0.00024219174
3.3474275e-08
3.317815e-08
3.292357e-08
3.2580305e-08
3.2209977e-08
7.1129435e-05
0.00019789019
0.00032111374
0.00034544094
0.00036842869
0.00036500397
0.00035119396
0.00034140467
0.00032825149
0.00031627296
0.00030673409
0.00029623299
0.00028612808
0.00028012728
0.000275165
0.00027061149
0.00026520679
0.0002605054
0.000255872
0.00025125901
0.00024763089
0.00024397094
0.00024177809
3.3108506e-08
3.2828769e-08
3.2594033e-08
3.2283213e-08
3.1953778e-08
6.69535e-05
0.00019114197
0.00031200674
0.00033950218
0.00036364318
0.00036295639
0.00035032051
0.00034151915
0.00032865301
0.00031628126
0.00030722566
0.00029757824
0.00028711981
0.000280892
0.00027600029
0.00027081397
0.00026544976
0.00026077592
0.00025568328
0.00025111896
0.00024718064
0.00024354807
0.0002411346
3.2740231e-08
3.2476774e-08
3.2261521e-08
3.1982529e-08
3.1693761e-08
6.3136e-05
0.00018480306
0.0003028246
0.00033155986
0.0003587163
0.0003607779
0.00034931989
0.00034155092
0.00032789854
0.00031618921
0.00030760741
0.0002988181
0.00028798408
0.00028164056
0.00027682042
0.00027099041
0.00026567365
0.00026097171
0.00025546977
0.00025094285
0.0002466938
0.00024309703
0.00024042887
3.2369281e-08
3.2122012e-08
3.1925913e-08
3.1678193e-08
3.1429962e-08
5.973889e-05
0.00017832011
0.00029155333
0.00032343871
0.0003537781
0.00035849518
0.00034822803
0.00034062477
0.00032704792
0.00031597171
0.00030793286
0.0002991997
0.00028872564
0.00028235748
0.00027746704
0.00027112541
0.00026587868
0.00026073874
0.00025523821
0.00025072371
0.00024616465
0.00024261143
0.0002396866
3.1995539e-08
3.1764372e-08
3.1587161e-08
3.1370279e-08
3.1162534e-08
5.6196259e-05
0.0001704616
0.00027996074
0.00031526183
0.00034885375
0.00035612129
0.00034705853
0.00033848663
0.00032609208
0.00031563631
0.00030818018
0.00029921542
0.00028934548
0.00028306675
0.00027755007
0.00027124127
0.00026605416
0.00026047219
0.00025498537
0.00025045461
0.00024559252
0.00024208643
0.00023890501
3.1618985e-08
3.1403833e-08
3.124531e-08
3.1058932e-08
3.0911468e-08
5.226489e-05
0.0001624375
0.0002684354
0.00030706632
0.00034401241
0.00035368222
0.00034410661
0.0003362425
0.00032500548
0.00031520742
0.00030782105
0.00029912057
0.00028984559
0.00028376195
0.00027760476
0.00027133134
0.00026620126
0.00026016194
0.00025472168
0.00024984418
0.00024498862
0.00024151915
0.00023808263
3.1239635e-08
3.1040966e-08
3.0909367e-08
3.0773262e-08
3.0692983e-08
4.8382238e-05
0.00015447368
0.00025701221
0.00029888001
0.00033918209
0.00035044812
0.00034056307
0.00033389213
0.00032380236
0.00031469933
0.00030667095
0.00029891836
0.0002902293
0.00028414364
0.00027762076
0.00027139311
0.00026608118
0.00025982567
0.00025443657
0.00024921211
0.00024434943
0.00024083129
0.00023722146
3.0876083e-08
3.0695681e-08
3.0589925e-08
3.0493496e-08
3.0470581e-08
4.4675037e-05
0.00014666558
0.00024575543
0.00029077797
0.00033432078
0.00034543857
0.00033691801
0.00033144028
0.00032251051
0.0003136071
0.0003054245
0.00029859823
0.00029052486
0.00028400284
0.00027761471
0.00027143504
0.00026562962
0.00025946857
0.00025412454
0.00024854931
0.0002436714
0.00023990355
0.00023632152
3.0511981e-08
3.0347589e-08
3.0267519e-08
3.0210308e-08
3.0244407e-08
4.120357e-05
0.00013906822
0.00023477186
0.0002825903