/*--------------------------------*- C++ -*----------------------------------*\
  =========                 |
  \\      /  F ield         | OpenFOAM: The Open Source CFD Toolbox
   \\    /   O peration     | Website:  https://openfoam.org
    \\  /    A nd           | Version:  7
     \\/     M anipulation  |
\*---------------------------------------------------------------------------*/
FoamFile
{
    version     2.0;
    format      ascii;
    class       volScalarField;
    location    "50000";
    object      Zvar;
}
// * * * * * * * * * * * * * * * * * * * * * * * * * * * * * * * * * * * * * //

dimensions      [0 0 0 0 0 0 0];

internalField   nonuniform List<scalar> 
113400
(
1.8054363e-11
2.4258219e-11
4.242022e-11
8.3660684e-11
1.6809901e-10
4.0557374e-10
1.0999126e-09
3.3627141e-09
1.1657416e-08
4.7988511e-08
2.3641975e-07
1.5176232e-06
1.1372021e-05
3.596571e-05
7.6612111e-05
0.00015005086
0.00031321923
0.00062652802
0.0012353782
0.0024218782
0.0047486193
0.0093374014
0.018068753
0.033606832
0.06032151
0.098407781
0.14708033
0.24679
2.0431758e-10
4.4665378e-10
1.0587642e-09
2.3189067e-09
5.5393178e-09
1.3949996e-08
3.6950793e-08
1.1076683e-07
3.8768023e-07
1.6776302e-06
9.1874198e-06
4.0301043e-05
7.613248e-05
8.6650001e-05
0.00013188705
0.00030137125
0.00061075332
0.0011765574
0.0021815677
0.0039192391
0.0068060146
0.011238128
0.017198381
0.024265857
0.031727725
0.037948044
0.041607011
0.043092653
8.1171696e-10
2.2075426e-09
5.7414599e-09
1.3543084e-08
3.1921737e-08
8.0647277e-08
2.2416186e-07
6.882988e-07
2.3496202e-06
8.8105122e-06
3.6154486e-05
7.9817959e-05
9.9389116e-05
0.00012613092
0.00022514074
0.00046528328
0.00092554212
0.0017521977
0.0031253551
0.0052303999
0.008238495
0.012152841
0.016613397
0.021034385
0.024743067
0.027266643
0.028565993
0.028961558
2.3700403e-09
7.2366722e-09
1.9767853e-08
4.9225189e-08
1.2362968e-07
3.3191688e-07
9.4216611e-07
2.827808e-06
9.0975806e-06
3.2837042e-05
8.1543482e-05
0.00010671258
0.00013030907
0.00020722237
0.00038090603
0.00073633006
0.0013850499
0.0024572682
0.0041079526
0.0063963461
0.0092121116
0.012334485
0.01544984
0.018227208
0.020418914
0.021910749
0.022810446
0.023339177
6.1257024e-09
2.0370106e-08
5.8224532e-08
1.5029262e-07
3.8260071e-07
1.0105634e-06
2.7499964e-06
7.7559634e-06
2.3567065e-05
6.3793749e-05
0.00010925622
0.00013022487
0.0001753327
0.00030530992
0.00056077828
0.0010439881
0.0018616403
0.0030691302
0.004721172
0.0067912574
0.0091505449
0.011632066
0.013992201
0.016037408
0.017706454
0.019016903
0.020051024
0.020925307
1.4613621e-08
5.1713891e-08
1.5407491e-07
3.9844044e-07
9.959955e-07
2.5193499e-06
6.4762087e-06
1.7484365e-05
5.0431396e-05
9.921321e-05
0.0001302754
0.00015744705
0.00024106553
0.00043269123
0.00078626794
0.0014139569
0.0023661454
0.003638103
0.005248182
0.0071141622
0.0091176985
0.011146825
0.013065724
0.014765304
0.016217029
0.017451949
0.018530634
0.019517084
3.3523789e-08
1.2646079e-07
3.7528393e-07
9.535591e-07
2.3232729e-06
5.6253541e-06
1.4111939e-05
3.6602538e-05
8.3618972e-05
0.0001290552
0.00015012739
0.00018953104
0.00032096158
0.00058360887
0.0010511179
0.0017968289
0.0028091591
0.0041042661
0.0056362962
0.0073048294
0.009022949
0.01071954
0.012347325
0.013855374
0.015211804
0.016437534
0.017570206
0.018644296
7.2122163e-08
2.8203481e-07
8.3035134e-07
2.0539384e-06
4.8313578e-06
1.142058e-05
2.7064664e-05
6.6305861e-05
0.00011895733
0.00015057562
0.00017319546
0.00024134954
0.00042242828
0.00076325461
0.0013468636
0.0021860513
0.0032269097
0.0045127779
0.0059708385
0.0074817777
0.0089910869
0.010467667
0.011885883
0.013244654
0.014536823
0.015751549
0.016903532
0.018013642
1.4538195e-07
5.7778949e-07
1.6672915e-06
4.0560926e-06
9.3250881e-06
2.1101957e-05
4.8515474e-05
0.00010137026
0.00014839076
0.00017297361
0.00020599558
0.00031189609
0.00054931955
0.00097119051
0.001655073
0.0025682531
0.0036222773
0.0048639055
0.0062362477
0.0076292869
0.00899473
0.010319081
0.01160205
0.012839479
0.014049578
0.015241432
0.016403679
0.017533023
2.7186348e-07
1.1012243e-06
3.1733024e-06
7.5389674e-06
1.6822611e-05
3.6736875e-05
8.0063931e-05
0.00013650761
0.00016831162
0.00019080098
0.00024279495
0.00039163184
0.00069238514
0.0011984887
0.0019555594
0.0028999565
0.0039577673
0.0051525757
0.0064478256
0.0077501082
0.0090206896
0.010244199
0.011437854
0.012607103
0.013747572
0.014880324
0.016022771
0.017157827
4.7718736e-07
1.9568862e-06
5.5580615e-06
1.3043123e-05
2.8244889e-05
5.9269213e-05
0.00011625186
0.00016597792
0.00018907089
0.00021429659
0.00029003274
0.00048247187
0.00084566014
0.0014246619
0.0022308158
0.0031895958
0.0042412081
0.0053922479
0.0066176571
0.0078452644
0.0090488127
0.010208461
0.011332699
0.012448809
0.013556553
0.014649384
0.01574003
0.016840866
7.8029301e-07
3.2395677e-06
9.1977257e-06
2.107548e-05
4.4285216e-05
8.9723614e-05
0.00014926728
0.00018468676
0.00021091588
0.000250467
0.00035458323
0.00059118571
0.0010097945
0.0016468237
0.0024901293
0.0034491332
0.0044807831
0.0055930455
0.0067595593
0.0079262998
0.0090778612
0.010196345
0.011275921
0.012342177
0.013415432
0.014487123
0.015550908
0.016607127
1.2101524e-06
5.0757724e-06
1.4184789e-05
3.1887983e-05
6.4732989e-05
0.00012356555
0.00018005058
0.00020322465
0.00023069326
0.00028810655
0.00042598732
0.00071205709
0.0011852152
0.0018586818
0.0027164822
0.0036713676
0.0046772986
0.0057571014
0.0068789983
0.0079986736
0.0091098776
0.010197929
0.011251218
0.012283
0.01331826
0.014363613
0.015407255
0.01644084
1.7883186e-06
7.561601e-06
2.1058683e-05
4.6566752e-05
9.1649829e-05
0.00015636509
0.00019779587
0.00022169157
0.00025474602
0.00032487132
0.00049953318
0.00084116823
0.0013622612
0.0020543137
0.0029161107
0.0038651105
0.0048436989
0.0058934159
0.0069814782
0.0080651074
0.0091441271
0.010208111
0.011243402
0.012253742
0.013258056
0.014270577
0.015289876
0.016302103
2.4874934e-06
1.0611444e-05
2.912531e-05
6.2266886e-05
0.00011788922
0.00018049419
0.00021344617
0.0002427226
0.00028338816
0.00037159064
0.0005838949
0.00097229181
0.0015189542
0.0022220568
0.0030913499
0.0040348492
0.0049886104
0.006003287
0.0070660121
0.0081247399
0.0091766785
0.010220731
0.011241618
0.012236923
0.013221498
0.014205392
0.015194351
0.016181454
3.2600164e-06
1.3941429e-05
3.7644364e-05
7.8787665e-05
0.00014488323
0.00020437099
0.0002309945
0.00026421589
0.00031639267
0.00042822962
0.00067662663
0.0010996445
0.0016632296
0.002374375
0.0032444161
0.0041800936
0.005110285
0.0060893128
0.007129249
0.0081699898
0.0092010472
0.01022753
0.011235516
0.012218684
0.013189695
0.014156051
0.015118397
0.016073965
4.1054369e-06
1.7609342e-05
4.7157187e-05
9.7639491e-05
0.00016864417
0.00022019647
0.00024956469
0.00028894129
0.0003520783
0.00049178838
0.00077872393
0.0012286685
0.0017995227
0.0025138026
0.0033814131
0.0043092564
0.0052175851
0.0061602333
0.0071786572
0.0082042813
0.0092169157
0.010227613
0.011223713
0.012196514
0.013156005
0.014110294
0.015055799
0.015982952
4.9476304e-06
2.1252248e-05
5.6246699e-05
0.00011386098
0.00018485868
0.00023384446
0.00026917795
0.00031349487
0.00038955583
0.00056102601
0.00088890493
0.0013514641
0.0019214306
0.0026456975
0.003507299
0.0044216844
0.0053142648
0.0062244901
0.0072182266
0.0082325688
0.0092312741
0.010228741
0.011213143
0.012176031
0.013125954
0.01407018
0.015002166
0.015910995
5.7134049e-06
2.4583719e-05
6.4325102e-05
0.00012768165
0.00019917469
0.00024729991
0.00028738378
0.00033666345
0.00042715534
0.00063164346
0.00098697908
0.0014547524
0.0020299856
0.0027566545
0.0036146503
0.0045193499
0.0054009186
0.0062868729
0.0072502945
0.0082514544
0.0092427441
0.010230658
0.011205047
0.01215932
0.013102161
0.014038871
0.014960046
0.015853653
6.380475e-06
2.7505684e-05
7.139879e-05
0.00014000602
0.00021292634
0.00026151745
0.00030553882
0.00036160832
0.00047005862
0.00069837043
0.0010713112
0.0015485053
0.0021245693
0.0028476627
0.0037003313
0.0045990042
0.0054745104
0.0063421657
0.0072744039
0.0082587615
0.0092440091
0.010224823
0.011191635
0.012138005
0.013075174
0.01400684
0.014919858
0.015801894
6.9757604e-06
3.0113463e-05
7.7782438e-05
0.0001514399
0.0002261748
0.00027616589
0.0003247619
0.00039040474
0.00051738837
0.00076484831
0.0011487564
0.0016343576
0.0022115307
0.0029261921
0.0037712629
0.0046650941
0.0055363829
0.0063869041
0.0072886058
0.008255
0.0092336333
0.01020808
0.011168664
0.012107663
0.013039991
0.013967257
0.014872807
0.015748025
7.5351177e-06
3.2566216e-05
8.3867543e-05
0.00016256047
0.00023951259
0.00029105211
0.00034383766
0.00042064294
0.00056639512
0.00082992955
0.0012213962
0.0017131379
0.0022920751
0.002997395
0.0038322467
0.0047200875
0.0055892833
0.0064240955
0.0072936964
0.0082404321
0.0092126475
0.010180933
0.011136663
0.012070143
0.012997517
0.01392059
0.014820462
0.015691451
8.0790695e-06
3.4945939e-05
8.9832967e-05
0.00017362829
0.00025314213
0.00030662949
0.00036352033
0.00045126589
0.00061504532
0.00089320778
0.0012926995
0.0017884061
0.0023657081
0.003063721
0.003889355
0.0047661926
0.0056281294
0.006454309
0.0072991855
0.0082192629
0.0091797175
0.010142953
0.011095204
0.012024772
0.012947738
0.013867027
0.014763021
0.015631979
8.6340055e-06
3.7349477e-05
9.5903204e-05
0.00018503821
0.00026748933
0.00032311565
0.0003842782
0.00048250356
0.00066202893
0.00095233256
0.0013608745
0.0018606241
0.0024327433
0.0031219439
0.0039368253
0.0048035393
0.0056586962
0.0064801924
0.0073077172
0.0081975108
0.0091396442
0.010097395
0.011046076
0.011973096
0.012893463
0.013808567
0.014700728
0.01556924
9.2246786e-06
3.9902534e-05
0.00010243606
0.00019606865
0.00028094445
0.00034023732
0.00040642744
0.00051462377
0.00070810015
0.0010090529
0.0014251634
0.0019284399
0.0024936057
0.0031709155
0.0039728735
0.0048311513
0.0056829555
0.0065017272
0.007314212
0.0081749333
0.0090971836
0.010048211
0.010992835
0.011917579
0.01283612
0.01374751
0.014636104
0.01550531
9.8298706e-06
4.2476468e-05
0.00010886664
0.0002060786
0.00029369085
0.00035777016
0.00043028935
0.00054680348
0.00075022888
0.0010626871
0.0014880237
0.0019939075
0.0025512394
0.0032138037
0.0040013429
0.0048513142
0.0057010602
0.0065178062
0.0073156005
0.0081472165
0.009048383
0.0099939979
0.010935401
0.011858524
0.012776577
0.013685977
0.014571379
0.015441541
1.0419206e-05
4.493201e-05
0.0001148716
0.00021544731
0.00030637849
0.00037549183
0.00045468418
0.00057846865
0.00079017997
0.0011132712
0.0015465755
0.0020520938
0.0026042456
0.0032535686
0.0040249212
0.0048659485
0.0057132838
0.0065263348
0.0073161637
0.0081290533
0.0090007569
0.0099319495
0.010872244
0.011795088
0.012712958
0.013620965
0.014505394
0.015377423
1.0991358e-05
4.7285249e-05
0.00012062028
0.00022471096
0.00031927565
0.00039400748
0.00047869893
0.00060721444
0.00082743721
0.0011613829
0.0015998378
0.0021026939
0.002650857
0.0032891035
0.0040448964
0.0048766415
0.0057214045
0.0065333198
0.0073180048
0.0081146554
0.0089578736
0.0098713974
0.010808462
0.011729856
0.012646824
0.013554043
0.014438781
0.015312661
1.1549081e-05
4.9542885e-05
0.00012611712
0.00023373779
0.00033227398
0.00041236288
0.00050201617
0.00063540426
0.00086240674
0.0012059353
0.0016488317
0.002149089
0.0026925552
0.0033197294
0.0040628403
0.0048846278
0.0057236359
0.0065371195
0.007319645
0.0080996046
0.0089143818
0.0098088614
0.010742984
0.011662976
0.012579163
0.01348594
0.014372298
0.015249321
1.2100605e-05
5.1733204e-05
0.00013146012
0.00024265711
0.00034575993
0.00043054409
0.00052456919
0.0006637902
0.00089741177
0.0012481139
0.0016933444
0.002192984
0.0027307619
0.0033434415
0.0040764446
0.0048912566
0.0057231139
0.00653615
0.0073161815
0.0080855829
0.0088802956
0.0097480513
0.010671877
0.011592082
0.01250846
0.013415775
0.014305142
0.015185021
1.2656439e-05
5.3897263e-05
0.00013672177
0.00025167746
0.00035917383
0.00044797287
0.00054687669
0.00069218618
0.0009323013
0.001287563
0.0017318107
0.0022324269
0.0027660887
0.0033633627
0.0040843187
0.0048906499
0.0057177067
0.006531678
0.0073104477
0.0080752712
0.0088555038
0.0096943128
0.010602105
0.011521368
0.012437314
0.013345021
0.014237229
0.015120695
1.321382e-05
5.6021936e-05
0.00014185283
0.00026062934
0.00037229153
0.0004649208
0.00056900278
0.00072040513
0.00096659263
0.0013250263
0.0017669751
0.002267863
0.0027977014
0.0033787717
0.0040865545
0.0048838993
0.0057066788
0.0065233631
0.0073025255
0.0080649811
0.008832615
0.0096434883
0.010533668
0.011451756
0.01236708
0.013275272
0.014170456
0.015057821
1.377148e-05
5.8100684e-05
0.00014684297
0.00026934366
0.00038512665
0.00048181398
0.00059123234
0.0007490721
0.00099964607
0.0013581043
0.0017991538
0.0023017752
0.0028269909
0.0033909687
0.0040830124
0.0048720734
0.00569104
0.0065110094
0.0072921319
0.0080515614
0.0088113039
0.0096011183
0.010467806
0.011379492
0.01229565
0.013205301
0.014104149
0.014996026
1.432661e-05
6.0119897e-05
0.00015164585
0.00027781184
0.00039783719
0.0004987224
0.00061348745
0.00077780898
0.001031088
0.0013872502
0.0018279874
0.0023305617
0.0028513259
0.0034066432
0.0040806901
0.0048560655
0.0056693198
0.0064891704
0.0072764922
0.0080365306
0.0087933355
0.0095697584
0.010408991
0.011307439
0.012224411
0.013135753
0.014038439
0.014935101
1.4878091e-05
6.2075025e-05
0.00015626713
0.00028607436
0.00041047088
0.00051567447
0.00063601518
0.00080600462
0.0010599443
0.0014138332
0.0018545824
0.0023562624
0.0028730419
0.0034221156
0.0040795595
0.0048388997
0.0056442403
0.006462492
0.0072564229
0.0080194032
0.0087754542
0.0095408309
0.010353839
0.01123721
0.012154496
0.013067459
0.013973987
0.014875578
1.5426916e-05
6.3964441e-05
0.00016070451
0.00029411537
0.00042299484
0.00053263859
0.00065885888
0.00083324659
0.0010858829
0.0014381934
0.0018806554
0.0023809972
0.0028937652
0.0034368751
0.0040785129
0.0048223944
0.0056189639
0.0064344786
0.0072341814
0.0079998997
0.0087545591
0.0095126211
0.010304625
0.011168267
0.012082309
0.01299828
0.013909425
0.014816552
1.5972714e-05
6.5789829e-05
0.00016497312
0.00030195973
0.0004353821
0.00054988727
0.00068119067
0.00085819543
0.0011103827
0.0014622692
0.0019058822
0.0024038737
0.0029148492
0.0034510204
0.0040738826
0.0048051959
0.0055956953
0.0064074465
0.0072121081
0.0079801845
0.0087319546
0.0094883126
0.010267564
0.011106053
0.012009307
0.012928727
0.013844683
0.014757627
1.6516964e-05
6.7555951e-05
0.0001690754
0.00030958016
0.00044756563
0.00056732958
0.00070272706
0.00088115707
0.0011337057
0.0014864545
0.0019293135
0.002422629
0.0029336898
0.0034644147
0.004067832
0.0047877619
0.0055749227
0.0063822239
0.0071890036
0.0079622959
0.0087138474
0.009468711
0.010236278
0.011050705
0.01194124
0.012862838
0.013782758
0.014701051
1.7058646e-05
6.9263831e-05
0.00017301897
0.00031694122
0.00045978262
0.00058403347
0.0007220598
0.00090280904
0.0011565997
0.0015100962
0.001951567
0.0024397559
0.0029509397
0.003477256
0.0040624207
0.0047698108
0.0055518423
0.0063561767
0.0071655377
0.007945731
0.0086993467
0.0094518604
0.010209484
0.011002743
0.011877185
0.012799055
0.013723529
0.014647328
1.7590191e-05
7.0877642e-05
0.00017669133
0.00032390759
0.00047136549
0.00059950416
0.00074037501
0.00092394501
0.0011795086
0.0015327512
0.0019711889
0.0024560026
0.0029686432
0.0034903701
0.0040575298
0.0047513503
0.0055278253
0.0063278875
0.0071390982
0.0079274963
0.0086842869
0.0094344507
0.010190312
0.010972162
0.011823412
0.012737053
0.013666613
0.014595857
1.8108599e-05
7.2393276e-05
0.0001801025
0.00033051603
0.00048221285
0.00061401726
0.00075829342
0.00094508353
0.0012025433
0.0015540962
0.0019877844
0.002471012
0.0029848124
0.0034996644
0.0040515097
0.0047317412
0.0055021042
0.0062977689
0.0071106238
0.0079080692
0.0086696318
0.0094195762
0.010176871
0.010950245
0.011779955
0.01268345
0.013616399
0.01455
1.8608554e-05
7.3793146e-05
0.00018320949
0.00033656319
0.00049233164
0.0006280403
0.00077602599
0.00096628225
0.0012251988
0.0015738424
0.002002636
0.0024838483
0.002996713
0.0035082417
0.0040521557
0.0047141635
0.0054723976
0.0062652829
0.0070808551
0.0078884365
0.0086563515
0.0094064222
0.010165771
0.010931391
0.011740303
0.012633107
0.013570203
0.014508458
1.9088828e-05
7.5068106e-05
0.00018599082
0.00034210052
0.00050198772
0.00064181301
0.00079374888
0.00098805238
0.0012467106
0.0015898171
0.0020156792
0.0024972471
0.0030092458
0.0035190201
0.0040567838
0.0047015661
0.0054461149
0.0062355182
0.0070493263
0.007861644
0.0086401121
0.0093940549
0.010152887
0.010917711
0.011715804
0.012589838
0.013522829
0.014467443
1.9556426e-05
7.6240374e-05
0.00018851617
0.00034725602
0.00051129015
0.00065539045
0.00081155475
0.0010097459
0.001267002
0.0016046375
0.0020284631
0.0025110181
0.0030221953
0.0035323391
0.0040639174
0.0046903441
0.005422738
0.0062087441
0.0070180497
0.0078328589
0.0086218663
0.00938162
0.010141177
0.01090844
0.011699647
0.012554889
0.013480421
0.014430092
2.0020722e-05
7.7350701e-05
0.00019089719
0.0003521925
0.00052041989
0.00066900326
0.00083001026
0.0010310658
0.0012852918
0.0016190918
0.0020430757
0.002525053
0.0030328537
0.003545168
0.004072198
0.0046793062
0.0054010958
0.0061851352
0.0069892358
0.0078059084
0.0086050589
0.0093709764
0.010131895
0.010902333
0.011687632
0.012525093
0.013442813
0.014397128
2.0487975e-05
7.8428205e-05
0.00019319338
0.00035696629
0.00052936613
0.00068278068
0.00084808944
0.001050712
0.0013027476
0.0016336236
0.0020580443
0.0025390083
0.0030427797
0.0035570483
0.0040801968
0.0046686632
0.0053808917
0.0061642703
0.0069640787
0.0077823993
0.0085912468
0.0093631659
0.010125112
0.010898091
0.011679275
0.012501518
0.013408659
0.014365901
2.0959203e-05
7.9469479e-05
0.00019538189
0.00036151523
0.0005380511
0.00069656793
0.00086536541
0.0010688662
0.0013198144
0.0016490656
0.0020729594
0.0025516157
0.0030527746
0.0035699731
0.0040893415
0.0046604092
0.0053618472
0.0061427523
0.006941574
0.0077629597
0.0085794122
0.0093583069
0.010121459
0.010895121
0.011677842
0.012492907
0.013382587
0.014334773
2.143785e-05
8.0494673e-05
0.00019751587
0.0003659062
0.0005467085
0.00070960292
0.0008808824
0.0010863976
0.0013374125
0.0016654772
0.0020874754
0.002562037
0.0030625637
0.0035832742
0.0040969197
0.0046518326
0.0053422752
0.0061210792
0.0069212724
0.0077450332
0.0085661671
0.0093555902
0.010123856
0.010898391
0.011683857
0.01249334
0.013365943
0.014310701
2.1915199e-05
8.1475517e-05
0.00019951194
0.00037002816
0.00055460679
0.00072128777
0.00089566988
0.001103922
0.0013553
0.001682161
0.0021015929
0.0025718533
0.0030714058
0.0035931651
0.0041047687
0.0046523006
0.0053266627
0.0060970984
0.0068991351
0.0077243368
0.0085523713
0.0093547742
0.010129513
0.010905729
0.011694456
0.012498981
0.013355266
0.014292382
2.2385563e-05
8.2387937e-05
0.00020131402
0.00037374888
0.00056178573
0.00073232953
0.00091029443
0.0011217434
0.0013739764
0.0016979452
0.0021124032
0.0025806653
0.0030816103
0.0036042661
0.0041157391
0.0046583412
0.0053167927
0.0060761261
0.0068777422
0.0077028228
0.0085382818
0.0093546496
0.010136879
0.010915386
0.011707096
0.012507651
0.013349141
0.014276636
2.2852329e-05
8.3250986e-05
0.00020298572
0.0003768638
0.0005679656
0.00074298281
0.00092507143
0.0011398856
0.0013927674
0.0017129495
0.0021229711
0.0025904526
0.0030929755
0.0036162191
0.0041293273
0.0046680012
0.0053113101
0.006059855
0.0068599036
0.0076840343
0.0085249355
0.0093533875
0.010143865
0.010925211
0.011718363
0.012520131
0.013355527
0.014267773
2.3310523e-05
8.4041567e-05
0.00020444912
0.00037933766
0.00057339262
0.00075352179
0.00094039864
0.0011592842
0.0014114667
0.0017260457
0.0021341129
0.0026035108
0.0031057306
0.0036273551
0.0041448171
0.0046799303
0.005305832
0.0060465994
0.0068473368
0.0076695586
0.0085146232
0.0093541559
0.010152606
0.01093619
0.011731748
0.012536605
0.013367268
0.014264802
2.3757457e-05
8.4755495e-05
0.00020570812
0.00038142839
0.00057848551
0.00076400544
0.00095620888
0.0011788565
0.001429165
0.0017388763
0.0021460964
0.0026180463
0.0031197714
0.0036394937
0.0041612499
0.0046931227
0.0053018776
0.0060359733
0.0068388367
0.0076602741
0.0085059793
0.0093518877
0.010161885
0.010951276
0.011748524
0.012556433
0.013382462
0.014265669
2.4199552e-05
8.5418353e-05
0.00020684456
0.00038335045
0.00058343508
0.00077450577
0.00097261585
0.0011983332
0.0014458733
0.0017520202
0.0021600798
0.0026336494
0.0031337321
0.0036526101
0.004179046
0.0047083252
0.0053012852
0.0060286356
0.006833355
0.0076542829
0.0084994699
0.0093501924
0.010171349
0.010967413
0.011766634
0.012577631
0.013399023
0.014267917
2.4649889e-05
8.6081715e-05
0.00020798429
0.00038532465
0.00058846725
0.00078543853
0.00098844246
0.0012157043
0.0014621834
0.0017665214
0.0021756917
0.0026497354
0.0031468005
0.003666473
0.004198134
0.004724007
0.0053040365
0.0060240624
0.0068276787
0.0076504213
0.0084972039
0.0093515932
0.010182968
0.010985144
0.011785806
0.012598773
0.013418708
0.014277485
2.5109602e-05
8.675823e-05
0.00020914469
0.00038731791
0.00059350755
0.00079578637
0.0010027649
0.0012321797
0.0014790271
0.0017826195
0.002192157
0.0026656978
0.0031603979
0.0036813618
0.0042167908
0.0047377253
0.0053065345
0.0060193863
0.0068218914
0.0076476062
0.0084975812
0.0093562882
0.010197498
0.011005492
0.011807387
0.012621805
0.013443451
0.014296149
2.557139e-05
8.7424794e-05
0.00021026531
0.00038921109
0.00059816789
0.0008050756
0.0010161136
0.0012485029
0.0014973098
0.0018017678
0.0022089745
0.0026786411
0.0031728574
0.0036965956
0.0042337331
0.004754496
0.0053189994
0.0060189513
0.0068145987
0.0076433131
0.0084956552
0.0093615951
0.010214719
0.011028223
0.011831307
0.012647288
0.013471073
0.014318231
2.6031379e-05
8.8056215e-05
0.00021127773
0.00039085978
0.0006021937
0.00081354248
0.0010293165
0.0012654126
0.0015167867
0.0018219328
0.0022258786
0.0026918683
0.0031864022
0.0037128598
0.0042514005
0.0047749221
0.0053375058
0.0060249411
0.0068121823
0.0076411077
0.008493931
0.0093673851
0.010233247
0.011053165
0.011857217
0.012674182
0.013499642
0.014340971
2.6494338e-05
8.8663328e-05
0.00021219948
0.00039231267
0.00060592496
0.00082188959
0.0010428646
0.0012831473
0.0015377094
0.0018424505
0.0022417707
0.0027061355
0.0032032519
0.0037309334
0.0042693723
0.0047981884
0.0053589215
0.0060316495
0.0068136617
0.0076451683
0.0084980484
0.0093735605
0.010246012
0.011077792
0.011887776
0.012704308
0.013530341
0.014364976
2.6963666e-05
8.9258115e-05
0.00021308835
0.00039376009
0.00060968842
0.00083039524
0.0010569044
0.0013018874
0.0015590167
0.0018621357
0.0022580253
0.0027221812
0.0032224161
0.0037512355
0.0042894009
0.0048231804
0.0053820003
0.0060401481
0.0068176239
0.007652347
0.0085048369
0.009380485
0.01025785
0.011100852
0.011917102
0.012734656
0.013561593
0.014392576
2.7447168e-05
8.9869884e-05
0.00021402119
0.00039531523
0.00061359635
0.00083915291
0.001071548
0.001321619
0.0015804834
0.0018814888
0.0022753711
0.0027410436
0.0032427498
0.0037704825
0.0043106789
0.0048512647
0.0054078767
0.0060520683
0.0068248892
0.0076624895
0.0085145568
0.0093894745
0.0102709
0.011123409
0.011944798
0.01276326
0.013590687
0.014421749
2.796025e-05
9.0541167e-05
0.00021508089
0.00039711402
0.00061783822
0.00084838841
0.0010872671
0.0013414281
0.0016004979
0.001901042
0.0022947606
0.0027621093
0.0032645978
0.0037907009
0.0043339531
0.0048808405
0.0054336902
0.0060672267
0.0068351318
0.0076718774
0.008525945
0.0094023591
0.010286438
0.011147155
0.011972844
0.012791385
0.013618922
0.014450271
2.8510058e-05
9.1293025e-05
0.00021631072
0.00039921641
0.00062246253
0.00085823519
0.00110281
0.0013598533
0.0016204006
0.0019219826
0.0023163934
0.0027845614
0.0032861987
0.0038122176
0.0043598048
0.00491156
0.0054593551
0.0060833275
0.006847096
0.0076823271
0.0085386872
0.0094175089
0.010304298
0.011172439
0.012001745
0.012819778
0.013646902
0.014478082
2.909451e-05
9.2115537e-05
0.00021767717
0.00040153453
0.00062734889
0.00086791587
0.001117245
0.0013775739
0.001640825
0.0019442022
0.0023399197
0.0028080208
0.0033076599
0.0038347034
0.0043879502
0.0049442236
0.0054869788
0.0061015622
0.0068617335
0.0076957415
0.0085526229
0.0094319309
0.010323257
0.011199987
0.012031963
0.012848582
0.013674505
0.014504792
2.970711e-05
9.2987219e-05
0.00021912492
0.00040395509
0.00063213712
0.00087686803
0.0011309214
0.0013955375
0.0016622038
0.0019679961
0.0023642852
0.0028308099
0.003330239
0.00386047
0.0044169409
0.004974631
0.0055158062
0.0061231196
0.00687804
0.0077121678
0.0085690335
0.0094469188
0.010342521
0.011227602
0.012063312
0.012878671
0.013701993
0.014529699
3.0338386e-05
9.3879002e-05
0.00022058365
0.00040632352
0.00063660403
0.00088534726
0.0011446147
0.0014141038
0.0016844593
0.0019930756
0.0023893941
0.0028536581
0.0033536023
0.0038879756
0.0044463474
0.0050041567
0.0055455352
0.0061461352
0.0068923465
0.0077281718
0.0085876243
0.0094643108
0.010360438
0.0112497
0.012093353
0.012911151
0.013730825
0.014555025
3.0982676e-05
9.4773086e-05
0.00022201049
0.0004086008
0.00064092944
0.00089382167
0.0011586985
0.0014334671
0.001708075
0.0020180701
0.0024123273
0.0028764878
0.0033792264
0.003916151
0.0044744948
0.005032744
0.0055788066
0.0061767914
0.0069096072
0.0077426874
0.0086058141
0.0094815538
0.010376236
0.011267884
0.01212088
0.012943257
0.013760002
0.014580962
3.1641019e-05
9.5671648e-05
0.00022342849
0.00041087023
0.00064525218
0.00090237982
0.0011731321
0.0014535525
0.0017317178
0.0020417664
0.0024347624
0.0029002752
0.0034067849
0.0039449334
0.0045018002
0.0050627939
0.0056153138
0.0062103179
0.0069313551
0.0077597559
0.0086233169
0.0094990586
0.010392989
0.011286236
0.01214594
0.012970409
0.01378696
0.014607181
3.232319e-05
9.6600999e-05
0.00022489462
0.00041322697
0.00064970037
0.00091117316
0.0011881418
0.0014743319
0.0017549385
0.0020646377
0.002457826
0.002925985
0.003435654
0.0039740091
0.0045303097
0.0050951655
0.0056527171
0.0062429703
0.0069546674
0.0077786137
0.008639901
0.0095166203
0.01041104
0.011305015
0.012170365
0.012996465
0.013810921
0.014628648
3.3038893e-05
9.7584518e-05
0.0002264603
0.00041576123
0.0006544048
0.00092037521
0.0012039804
0.0014949757
0.0017768215
0.002087599
0.0024826035
0.002953812
0.0034650468
0.0040016932
0.0045592262
0.0051296445
0.005691423
0.006276592
0.0069790101
0.0077985698
0.0086571548
0.0095343819
0.010429142
0.011324066
0.012194437
0.013021237
0.013832329
0.014646579
3.379531e-05
9.864144e-05
0.00022816672
0.00041854073
0.00065945445
0.00093017302
0.0012193321
0.0015137321
0.0017983479
0.00211183
0.0025090984
0.002982615
0.0034939437
0.004029974
0.004590229
0.0051646744
0.0057285131
0.006311055
0.0070060428
0.0078205013
0.0086771888
0.0095522995
0.010443699
0.01134198
0.012219538
0.013045943
0.013852761
0.014662946
3.4588823e-05
9.9761962e-05
0.00022998365
0.0004214823
0.00066467917
0.00093934244
0.0012330716
0.0015319638
0.0018205788
0.0021372229
0.0025374568
0.003012124
0.0035220587
0.0040588822
0.0046234131
0.0052006533
0.0057654902
0.0063466078
0.0070332668
0.007839821
0.0086969771
0.0095718713
0.01045894
0.011359274
0.012243164
0.013070753
0.013873731
0.014678999
3.5407392e-05
0.0001009084
0.00023181558
0.00042437927
0.00066950995
0.000947675
0.0012464285
0.0015505826
0.0018436043
0.0021640481
0.0025661948
0.0030401329
0.0035503853
0.0040900018
0.004657721
0.0052362201
0.0058029582
0.006383418
0.007061348
0.0078596739
0.0087174541
0.0095929907
0.010476551
0.011373606
0.012257787
0.013092084
0.013896292
0.014695417
3.6243169e-05
0.00010205291
0.00023358991
0.00042711
0.00067404092
0.00095578303
0.0012599004
0.0015696752
0.0018674181
0.0021914234
0.0025943008
0.0030676766
0.0035796261
0.0041231365
0.0046924756
0.0052704331
0.0058408897
0.0064215827
0.0070897553
0.0078813201
0.0087390162
0.0096129368
0.010493613
0.011386937
0.012269839
0.013110005
0.013915527
0.014709603
3.7096074e-05
0.00010319211
0.0002353287
0.00042979626
0.0006785456
0.00096397018
0.0012737428
0.0015894497
0.0018922906
0.0022187229
0.0026209614
0.0030952921
0.0036106898
0.0041571439
0.0047267166
0.005304948
0.0058801889
0.0064593607
0.007115646
0.0079028043
0.0087604439
0.0096298247
0.01050914
0.011400364
0.012281406
0.013124971
0.013929347
0.014720331
3.7979652e-05
0.00010436594
0.00023711808
0.0004325714
0.00068319237
0.00097242469
0.0012881573
0.001610305
0.0019168426
0.0022437933
0.0026470666
0.0031242552
0.0036433776
0.0041910787
0.0047588532
0.005338915
0.0059204399
0.0064972825
0.0071413135
0.0079236784
0.008780979
0.0096454178
0.01052331
0.011412802
0.012292071
0.013138311
0.013941326
0.014727721
3.8906221e-05
0.00010559975
0.00023900396
0.00043550288
0.00068805903
0.0009812129
0.0013032383
0.0016308133
0.0019395594
0.0022682637
0.0026740308
0.0031543861
0.0036760902
0.0042232837
0.0047905923
0.0053742283
0.0059599367
0.0065318198
0.007166545
0.0079457806
0.0088013226
0.0096621723
0.010536256
0.011420023
0.012300517
0.013152085
0.01395278
0.014733157
3.9880696e-05
0.0001069051
0.00024100882
0.0004386231
0.00069318366
0.00099041019
0.0013178807
0.0016495121
0.0019614002
0.0022933616
0.0027020378
0.0031857581
0.0037086225
0.0042537996
0.0048216809
0.0054100762
0.0059989167
0.0065650757
0.0071908735
0.0079652355
0.0088167003
0.0096763428
0.010548474
0.011425722
0.012307615
0.013165251
0.013963971
0.014737709
4.0896871e-05
0.0001082676
0.00024309664
0.00044185051
0.00069840767
0.0009990859
0.0013309114
0.0016670877
0.0019834687
0.0023193596
0.0027315201
0.0032167625
0.0037381863
0.0042832671
0.0048538561
0.0054448292
0.0060338833
0.0065985788
0.0072200077
0.0079851717
0.008829156
0.0096884107
0.010559839
0.011431851
0.012310488
0.013168844
0.013971129
0.01474273
4.1939391e-05
0.00010964362
0.00024516125
0.00044495787
0.0007031538
0.0010067155
0.0013429843
0.0016844077
0.0020057827
0.0023459894
0.0027609544
0.0032460487
0.0037664978
0.0043128301
0.0048867657
0.005479337
0.0060675727
0.0066341226
0.007252756
0.0080047412
0.0088411423
0.0096996416
0.010567434
0.011435774
0.012310001
0.013165839
0.013973744
0.014745988
4.2997262e-05
0.00011099831
0.00024711296
0.00044779498
0.00070744925
0.0010138713
0.0013548115
0.0017018294
0.0020285404
0.002373276
0.0027897282
0.0032736575
0.0037948127
0.0043442016
0.0049198493
0.0055113503
0.0061001576
0.0066713558