/*--------------------------------*- C++ -*----------------------------------*\
| =========                 |                                                 |
| \\      /  F ield         | OpenFOAM: The Open Source CFD Toolbox           |
|  \\    /   O peration     | Version:  v2012                                 |
|   \\  /    A nd           | Website:  www.openfoam.com                      |
|    \\/     M anipulation  |                                                 |
\*---------------------------------------------------------------------------*/
FoamFile
{
    version     2.0;
    format      ascii;
    class       volScalarField;
    location    "0";
    object      Cz;
}
// * * * * * * * * * * * * * * * * * * * * * * * * * * * * * * * * * * * * * //

dimensions      [0 1 0 0 0 0 0];


internalField   nonuniform List<scalar> 
113400
(
0
0
4.0188952e-23
4.4509056e-22
0
-6.5674784e-22
8.3429202e-22
0
0
-9.1898773e-23
1.5417956e-22
-2.8159781e-22
-3.6546569e-21
0
-1.9043028e-21
5.613313e-21
3.2069057e-21
1.4242898e-21
5.0388514e-21
3.324071e-22
4.7334017e-21
-6.0303541e-22
6.6466858e-21
-4.2425654e-21
4.0693994e-21
0
0
0
0
1.6087219e-24
2.5809837e-24
-4.4400285e-22
-4.4701289e-23
-1.6475458e-21
1.2436458e-22
1.6576106e-21
-3.8397663e-21
1.4005387e-21
-1.4116644e-21
3.1903444e-22
-1.4752088e-21
-2.3045551e-21
1.862298e-21
4.5419776e-21
-6.36107e-21
-1.4208091e-21
-5.397603e-21
2.2177631e-21
2.9281644e-21
3.1022588e-21
7.6610161e-23
6.7211858e-21
-4.5092489e-21
-3.9002603e-21
-7.8794561e-21
3.9900151e-21
0
1.6087219e-24
-1.0130862e-21
3.9890153e-22
7.3368452e-22
1.3800676e-22
1.2436458e-22
0
3.1013189e-21
0
-1.3554575e-22
2.660424e-21
-7.7953264e-21
-2.3000542e-21
1.6727751e-21
5.944916e-21
-1.8366311e-21
1.8583079e-22
5.7132498e-21
-3.324071e-22
-2.1036337e-21
4.1675705e-22
7.6610161e-23
3.7288972e-22
-7.6758522e-23
0
-7.4878178e-21
3.9811768e-21
0
1.6087219e-24
-4.0188952e-23
-1.3695224e-21
4.4701289e-23
1.3800676e-22
1.2436458e-22
0
-1.4554577e-21
-1.3022517e-21
-2.2765682e-22
3.1903444e-22
-4.8064241e-22
-2.2955642e-21
-1.9295351e-21
-2.0522689e-21
3.7974763e-23
0
3.5035331e-22
2.3913917e-21
-4.6978329e-21
5.392622e-21
4.4934081e-22
-6.6901957e-21
6.3557339e-21
7.7624413e-21
7.469519e-21
0
-1.070032e-22
1.6087219e-24
-4.0188952e-23
0
0
-2.196109e-21
1.2436458e-22
-4.2050221e-21
-8.175866e-22
0
-1.3554575e-22
3.1903444e-22
-4.8064241e-22
-2.1059684e-21
-3.7803988e-23
-4.5596044e-22
-2.953821e-21
-3.0066668e-21
5.6870701e-21
-2.8639266e-21
5.3184542e-21
6.0303541e-22
-6.8780712e-21
0
-2.4646771e-21
3.8717357e-21
-3.7256325e-21
-7.1803098e-21
0
1.6087219e-24
-4.0188952e-23
9.2337327e-22
0
1.3800676e-22
2.1092305e-21
-1.7327694e-21
0
-1.2039958e-21
-1.3554575e-22
3.1903444e-22
-4.4201618e-21
-2.7764876e-22
-7.2007435e-21
-1.8589563e-21
3.7974763e-23
0
3.5035331e-22
2.1929258e-21
3.1620983e-22
3.079732e-21
2.265232e-21
0
-7.6758522e-23
0
0
-3.5813813e-21
3.5293039e-24
1.6087219e-24
-4.0188952e-23
9.2122429e-22
0
1.2544533e-21
1.2436458e-22
1.637455e-21
-2.3504921e-21
-1.4765252e-21
-2.6589893e-21
3.1903444e-22
3.4492496e-21
1.7268624e-21
-3.7803988e-23
-3.9962682e-21
4.8751308e-21
-2.8070657e-21
3.5035331e-22
-5.5568077e-21
3.1620983e-22
7.8931377e-22
7.6610161e-23
6.6439939e-21
-1.0475029e-20
-8.0788409e-21
0
0
0
1.6087219e-24
-4.0188952e-23
9.1908056e-22
0
1.3800676e-22
1.2436458e-22
9.9933258e-22
7.2064118e-22
0
-2.5611616e-21
3.1903444e-22
-4.8064241e-22
-2.7764876e-22
8.7817575e-21
6.2381249e-21
-6.2732254e-21
1.4001029e-21
3.5035331e-22
7.5787636e-21
5.0970489e-21
7.8931377e-22
2.254548e-21
-1.7123699e-21
-2.4499413e-21
-7.6868394e-21
0
0
0
-5.2749572e-22
5.9224409e-22
0
-1.4025859e-21
-1.6187569e-21
1.2436458e-22
-2.5354952e-21
-2.1566402e-21
9.1898773e-23
-2.6475701e-21
3.6916838e-21
2.6372548e-21
-2.7764876e-22
-3.7797684e-21
4.6457744e-21
6.3346591e-21
-2.9791934e-21
3.5035331e-22
-2.839271e-21
5.0853655e-21
6.0303541e-22
-6.8139666e-21
0
-4.4403123e-21
0
7.7519884e-21
0
-1.9048587e-22
1.285993e-22
-4.0188952e-23
0
0
-1.6146843e-21
1.2436458e-22
0
0
1.2832732e-21
1.2097331e-21
3.1903444e-22
-2.6160842e-21
-4.074942e-21
-1.7193344e-21
-4.5596044e-22
3.7974763e-23
-2.7865362e-21
3.5035331e-22
-3.324071e-22
5.4460764e-21
-6.3875755e-21
7.6610161e-23
0
-4.0575244e-21
7.649315e-21
0
7.0930012e-21
9.1480876e-23
-5.2500996e-22
8.9329375e-22
8.6866451e-22
-1.4406585e-21
-2.1634082e-21
-9.019865e-22
1.71281e-21
-8.0700693e-22
0
-2.4519844e-21
3.1903444e-22
3.5958411e-21
-4.6276553e-22
-5.4407321e-21
-6.9182821e-21
3.7974763e-23
-1.3898632e-21
3.1657851e-21
-3.324071e-22
-6.9887846e-21
2.8656034e-21
-6.7821488e-21
-4.1400181e-21
-7.6758522e-23
-1.5634413e-20
3.6713368e-21
7.8224874e-21
0
-3.9740097e-22
-4.0188952e-23
-4.3327082e-22
0
1.3800676e-22
1.0575633e-21
-9.0007515e-22
0
0
1.0198431e-21
-4.0852191e-21
-4.8064241e-22
-4.6276553e-22
-3.7803988e-23
-4.5596044e-22
-1.4325202e-21
-2.7729333e-21
2.9733983e-21
4.8307302e-21
5.0239273e-22
1.0376304e-20
7.6610161e-23
-2.0649503e-21
1.9039081e-21
4.1791572e-21
-7.6980241e-21
-3.5291878e-21
1.9615136e-22
1.6087219e-24
-6.6667072e-22
-4.32212e-22
-2.7787217e-21
-5.0235018e-22
1.2436458e-22
-2.6029931e-21
-1.4237572e-21
0
2.1695849e-21
3.6606337e-21
-4.8064241e-22
-4.0485243e-21
-3.7803988e-23
-4.5596044e-22
2.2365963e-22
0
-4.8829163e-21
1.0341697e-20
3.049929e-21
3.2271151e-21
4.7522514e-21
2.4327937e-21
-7.6758522e-23
0
3.7329475e-22
3.7341008e-22
-1.9568925e-22
1.0746476e-22
-8.2958887e-23
0
1.3860748e-21
1.3800676e-22
1.0530078e-21
-8.0482408e-22
0
-3.9961221e-21
1.1984251e-21
-1.9650791e-21
-4.713531e-21
-2.4363803e-21
-1.5176249e-21
-2.1992045e-21
-1.6110266e-21
0
3.5035331e-22
-3.324071e-22
3.1620983e-22
6.0303541e-22
9.034131e-21
0
-7.6758522e-23
0
0
-7.0239192e-21
0
-5.2007478e-22
-4.0188952e-23
1.3343225e-21
0
-9.5679857e-22
1.2436458e-22
0
0
-3.9868055e-21
-1.3554575e-22
2.5980171e-21
-2.5923663e-21
-4.0310199e-21
-8.7138885e-21
-7.0426695e-21
3.7974763e-23
-2.7526534e-21
3.5035331e-22
2.3240005e-21
3.1620983e-22
7.6971877e-21
7.6610161e-23
0
1.8894225e-21
-7.5563035e-21
-4.0088747e-21
0
0
1.6087219e-24
-4.0188952e-23
-9.0211827e-22
7.1211396e-22
1.2301366e-21
1.2436458e-22
-8.0089521e-22
-1.4133445e-21
1.3564702e-21
-1.3554575e-22
3.1903444e-22
-4.8064241e-22
5.2467694e-21
-3.7803988e-23
-4.5596044e-22
3.7974763e-23
0
3.5035331e-22
-3.324071e-22
3.1620983e-22
-4.2396341e-21
7.6610161e-23
-4.0896777e-21
8.1417813e-21
0
3.7329475e-22
0
0
1.6087219e-24
5.5901453e-22
-9.0002124e-22
0
6.827372e-22
1.2436458e-22
1.597876e-21
7.0494527e-22
-2.7067596e-21
-1.3554575e-22
3.629886e-21
1.4368087e-21
-2.7764876e-22
3.4534786e-21
-2.3733321e-21
-1.6003246e-21
-2.7392159e-21
2.9415035e-21
-2.9767554e-21
3.1620983e-22
-6.4583044e-21
6.468114e-21
0
-7.6758522e-23
4.1328785e-21
0
3.4862748e-21
0
6.6404911e-22
-1.8803984e-23
4.2695653e-22
8.9402578e-23
1.3800676e-22
-8.8610034e-22
-2.5735625e-21
-2.9961624e-21
-2.700594e-21
-1.3662076e-21
-4.0237234e-21
-6.5886712e-21
-5.9611192e-21
-7.004211e-21
9.0107217e-22
-3.0458393e-21
0
2.9351712e-21
2.3059337e-21
-2.2026136e-21
6.0303541e-22
-2.4214152e-21
-3.7288972e-22
1.8750428e-21
-3.7505201e-21
-4.3555806e-21
3.477755e-21
0
5.184051e-22
2.5809837e-24
0
-1.3250631e-21
7.7034696e-22
1.2436458e-22
0
0
-2.6944434e-21
-2.4991935e-21
3.1903444e-22
-4.8064241e-22
-2.7764876e-22
-3.7803988e-23
-4.5596044e-22
-4.2985953e-21
-1.362922e-21
3.5035331e-22
2.2999408e-21
5.0239273e-22
6.0303541e-22
-8.7765242e-21
2.4027736e-21
-4.3438572e-21
-4.1145249e-21
3.6001714e-21
0
0
-5.1397333e-22
-6.7778009e-22
8.9376083e-22
0
1.3800676e-22
1.2436458e-22
0
0
-1.2522552e-21
9.9744701e-22
-2.7843805e-21
-4.2874981e-21
-2.7764876e-22
-3.7803988e-23
-3.5260053e-21
-1.404016e-21
2.7191826e-21
5.6807138e-21
-7.6532834e-21
4.9587168e-21
-3.4509842e-21
-4.1532295e-21
2.0249232e-21
-7.6758522e-23
-4.1053818e-21
-3.5913733e-21
3.7341008e-22
1.8895667e-22
2.6874293e-22
-4.2241261e-22
1.3595345e-21
-6.1459601e-22
-2.1099624e-21
3.0447166e-21
0
0
1.3410937e-21
1.1789003e-21
4.6313813e-21
-2.957759e-22
1.6655941e-21
3.4212805e-21
4.8799331e-21
-2.8389589e-21
5.7967365e-21
5.363142e-22
-5.3871417e-21
-4.3149517e-21
5.3913508e-21
7.6610161e-23
0
9.9839109e-21
0
0
-3.4523204e-21
0
1.4482259e-22
-4.0188952e-23
0
0
7.6638252e-22
1.1258731e-21
0
-1.392747e-21
0
-1.3554575e-22
3.1903444e-22
3.6773626e-21
-4.1555415e-21
-3.7803988e-23
-4.5596044e-22
-6.2588859e-21
8.675218e-21
5.363142e-22
2.0959724e-21
1.0300629e-20
5.0080028e-21
-4.1325809e-21
1.2463119e-20
-7.6758522e-23
-3.3408218e-21
-3.5738415e-21
7.2611773e-21
0
1.6087219e-24
-4.0188952e-23
0
7.4548142e-22
1.3800676e-22
-6.9318605e-22
-7.8729462e-22
0
0
7.1282763e-22
3.1903444e-22
-4.8064241e-22
-2.7764876e-22
-3.7803988e-23
-4.5596044e-22
3.272234e-21
-2.8851266e-21
3.5035331e-22
-3.324071e-22
7.6014064e-21
2.8001367e-21
7.6610161e-23
2.3830036e-21
5.7074468e-21
0
7.5035101e-21
0
0
5.1236308e-22
-9.4511586e-22
-1.8149858e-21
0
2.3701956e-21
-8.7269851e-22
-7.8537061e-22
-9.1636163e-23
0
-1.3554575e-22
-3.9631238e-21
-4.8064241e-22
-4.6276553e-22
-1.8480411e-21
-4.5596044e-22
-1.7613415e-21
-2.6926992e-21
-5.1158643e-21
-3.324071e-22
-4.2810816e-21
6.0303541e-22
-4.1120331e-21
6.3884944e-21
-7.6758522e-23
0
-7.4860852e-21
-3.4270718e-21
0
1.6087219e-24
-4.0188952e-23
0
0
1.3800676e-22
1.2436458e-22
0
6.9128058e-22
0
-1.3554575e-22
-1.7247516e-21
-4.8064241e-22
3.3894739e-21
3.389396e-21
-4.5596044e-22
-1.3864822e-21
0
-2.1905699e-21
-3.324071e-22
3.1620983e-22
2.9756896e-21
7.6610161e-23
4.0006025e-21
-8.1244195e-21
0
0
0
1.8670197e-22
1.6087219e-24
-6.1573919e-23
0
0
-1.55086e-21
-2.6718211e-21
0
0
0
-5.902173e-21
3.1903444e-22
-4.8064241e-22
-2.7764876e-22
-3.7803988e-23
1.2422113e-21
3.7974763e-23
5.7307705e-21
3.5035331e-22
-2.9232131e-21
3.1620983e-22
7.1461335e-21
7.6610161e-23
-8.3545413e-21
3.7511764e-21
0
0
-3.7837521e-21
0
1.6087219e-24
-3.32549e-22
0
6.49689e-22
1.3800676e-22
-7.752048e-22
-1.6505565e-21
0
0
-1.3554575e-22
3.1903444e-22
-4.4077175e-21
-2.7764876e-22
-3.7803988e-23
1.2385147e-21
-2.7970318e-21
2.8588369e-21
3.5035331e-22
-2.7312588e-21
3.1620983e-22
-3.74837e-21
8.76536e-21
0
-7.6758522e-23
0
-3.5303855e-21
0
0
-2.6132698e-22
-4.0188952e-23
0
5.586987e-22
1.2888051e-21
1.2436458e-22
0
-1.8327233e-22
2.6397603e-21
2.1786269e-21
3.1903444e-22
-4.8064241e-22
1.6357381e-21
-3.4412945e-21
4.2453621e-21
3.7974763e-23
-1.8583079e-22
-4.694327e-21
-7.0456231e-22
5.0239273e-22
1.1827521e-20
7.6610161e-23
-4.3442338e-21
3.7324898e-21
-3.7317036e-22
7.4168106e-21
-1.0554492e-20
-3.7072467e-22
-2.6073304e-22
-4.0188952e-23
-4.1561836e-22
0
-1.5391686e-21
1.1104088e-21
1.5516419e-21
0
-2.6337584e-21
-1.3554575e-22
-2.9013591e-21
-4.8064241e-22
-2.1868121e-21
-3.7803988e-23
-4.5596044e-22
-1.5582936e-21
-2.8457883e-21
-2.3517836e-21
-3.324071e-22
2.7730881e-21
-4.0996847e-21
-4.4338321e-21
-4.3345285e-21
7.52312e-21
3.6509221e-21
-7.3995976e-21
3.3854005e-21
9.4223638e-23
-1.8289e-23
2.5003292e-22
0
0
-4.7993831e-22
1.2436458e-22
1.826059e-22
2.8231361e-21
-2.5358724e-21
-1.3554575e-22
2.3379692e-21
-4.8064241e-22
3.3471346e-21
3.3499766e-21
-1.9538798e-21
3.7974763e-23
0
3.0463412e-21
2.0489005e-21
5.0239273e-22
2.3047868e-22
8.7045406e-21
0
3.7138944e-21
0
3.8778607e-21
0
0
1.6087219e-24
-7.0475407e-22
0
0
3.4768642e-21
1.2436458e-22
0
-2.0436185e-21
0
9.6735947e-22
3.1903444e-22
3.2251192e-21
-3.8940262e-21
3.1568181e-21
-4.5596044e-22
4.4347523e-21
5.2939451e-21
3.5035331e-22
-5.4555387e-21
1.3002694e-22
5.2846172e-21
7.6610161e-23
3.9422995e-21
-3.8581478e-21
3.2599292e-21
0
6.7377483e-21
2.778134e-22
1.6087219e-24
1.4679915e-21
0
7.3119171e-22
1.3800676e-22
1.2436458e-22
7.7014696e-22
-5.8790526e-22
2.6158406e-21
-1.3554575e-22
-3.8836961e-21
-4.8064241e-22
1.4337889e-21
-3.7803988e-23
1.2201666e-21
3.7974763e-23
-8.2931731e-21
2.8481272e-21
4.5930364e-21
-9.0725106e-21
6.0303541e-22
-6.0845655e-21
0
4.0684256e-21
-7.6216123e-21
0
-3.7340513e-21
0
1.6087219e-24
-6.163876e-22
-4.1157046e-22
0
1.3800676e-22
1.2436458e-22
0
0
-2.4260996e-21
-1.3554575e-22
3.1903444e-22
-4.8064241e-22
-2.7764876e-22
-3.7803988e-23
-4.5596044e-22
1.6205048e-21
0
3.5035331e-22
-3.324071e-22
5.1857358e-21
7.407577e-21
-6.4422394e-21
0
3.6861714e-21
0
0
1.0804106e-20
0
1.6087219e-24
2.2582135e-22
0
0
1.1830805e-21
1.2436458e-22
-1.5327748e-21
2.1203086e-21
0
-1.3554575e-22
-2.8644452e-21
-4.8064241e-22
-2.1658486e-21
-3.7803988e-23
-4.5596044e-22
3.7974763e-23
-2.8134447e-21
3.5035331e-22
7.1140932e-21
3.1620983e-22
7.3918586e-21
7.6610161e-23
6.2430909e-21
-3.8304926e-21
0
0
0
9.3120843e-23
-4.9611054e-22
-6.135748e-22
0
4.4701289e-23
1.3800676e-22
1.2436458e-22
0
0
0
-1.3554575e-22
3.1903444e-22
-2.3154771e-21
-2.7764876e-22
-3.7803988e-23
-4.5596044e-22
4.3937385e-21
0
-7.4600876e-21
4.3722973e-21
5.1637822e-21
6.0303541e-22
7.6610161e-23
-3.9039037e-21
-7.6758522e-23
0
-3.4619523e-21
0
0
-4.9494284e-22
8.605579e-22
0
0
1.3800676e-22
1.9751835e-21
-1.6165952e-21
1.4374823e-21
0
-2.3145347e-21
3.1903444e-22
5.1952764e-21
1.2320037e-21
8.2223036e-21
2.4962182e-21
-6.0655973e-21
3.7166158e-22
3.5035331e-22
-7.7443729e-21
2.9207107e-21
5.2322218e-21
-2.3298435e-21
6.2144347e-21
-7.6758522e-23
3.9620934e-21
-3.8267867e-21
0
-9.268349e-23
-2.560335e-22
2.6648941e-22
3.6354573e-22
6.7868661e-22
1.3800676e-22
3.3498349e-23
1.5215648e-21
2.6851143e-21
1.1093366e-21
-3.764486e-21
-8.578629e-22
2.9862465e-21
-2.1533931e-21
1.3508962e-21
2.4890036e-21
-2.9141915e-21
-2.9800583e-21
5.285158e-21
-5.3863001e-21
7.3686161e-21
6.0303541e-22
7.6610161e-23
-8.1425822e-21
-7.6758522e-23
-3.9533228e-21
-3.8183471e-21
3.3197777e-21
1.8140192e-22
1.6087219e-24
-3.4617011e-22
4.0656599e-22
-6.7713727e-22
1.3800676e-22
2.1523082e-22
0
0
1.2901985e-21
-1.4039439e-21
3.1903444e-22
3.5319219e-21
-2.1492615e-21
3.2879002e-21
1.3839632e-21
-1.5275704e-21
0
3.5035331e-22
2.1888188e-21
3.1620983e-22
6.0303541e-22
7.6610161e-23
-8.1235946e-21
-7.6758522e-23
0
0
0
1.8096724e-22
1.6087219e-24
5.4899741e-22
0
-1.3064822e-21
-4.6844527e-22
2.8358526e-21
0
0
-9.1898773e-23
4.8676384e-23
3.1903444e-22
-6.6550892e-22
-2.7764876e-22
-3.7803988e-23
-3.5720683e-21
1.2287781e-21
-5.5629886e-21
-7.3876406e-21
4.3264761e-21
3.1620983e-22
3.0883415e-21
6.1331583e-21
0
-7.6758522e-23
-3.5626754e-21
-3.7329475e-22
0
0
-2.3439702e-22
8.308167e-22
0
0
1.3800676e-22
1.2436458e-22
3.2947824e-21
0
-1.1005513e-21
-1.3986513e-21
3.1903444e-22
-2.2931665e-21
-2.1410286e-21
-1.7856572e-21
-1.9176735e-21
2.9699083e-21
0
2.7997102e-21
1.1658493e-20
3.1620983e-22
-1.5045508e-21
-1.439353e-20
0
-7.6758522e-23
0
0
1.7224312e-20
0
1.6087219e-24
-4.0188952e-23
0
0
1.3800676e-22
1.9537834e-21
-2.2601183e-21
0
0
-1.3554575e-22
3.1903444e-22
-4.2816982e-21
1.396513e-21
-8.2019802e-21
-4.5596044e-22
1.4077434e-21
3.7166158e-22
3.5035331e-22
-5.5267801e-21
5.0985626e-21
6.0303541e-22
8.4853171e-21
0
-7.6758522e-23
-3.5452837e-21
3.7847941e-21
0
2.6773966e-22
4.9121375e-22
5.2345981e-22
0
0
1.3800676e-22
1.2436458e-22
0
0
-1.2785277e-21
1.1222931e-21
3.1903444e-22
-2.469185e-21
-2.7764876e-22
7.9219941e-21
-6.6453103e-21
-3.0662375e-21
0
3.5035331e-22
1.9799981e-21
3.1620983e-22
6.0303541e-22
7.6610161e-23
0
-7.6758522e-23
-3.5366197e-21
0
0
0
1.6087219e-24
-6.1573919e-23
-1.2488834e-21
-5.8004462e-22
7.3943145e-22
-2.5616e-21
1.6819961e-21
0
1.2756279e-21
9.3544723e-22
-2.7991275e-21
-2.957759e-22
3.0543294e-21
4.8008083e-21
4.2681479e-21
4.1272207e-21
8.0828111e-21
3.5035331e-22
-2.8252388e-21
3.1620983e-22
6.0303541e-22
7.6610161e-23
0
-7.6758522e-23
3.9011473e-21
-1.4325972e-20
1.056101e-20
1.7880969e-22
1.6087219e-24
-4.0188952e-23
4.4465714e-22
7.1262172e-22
7.3818228e-22
-2.5552581e-21
0
-1.4113943e-21
2.4535713e-21
-1.3554575e-22
3.1903444e-22
1.3142287e-21
-4.6276553e-22
-6.5976795e-21
-4.5596044e-22
-1.3217761e-21
2.5641016e-21
3.5035331e-22
-2.6335239e-21
-1.8726574e-21
3.0626516e-21
-9.8948961e-21
0
3.9592795e-21
3.5193552e-21
-1.3919492e-20
0
0
-4.8456109e-22
-6.4248539e-22
0
0
-9.6958311e-22
1.8459846e-21
7.4603535e-22
-2.8163382e-21
0
-1.3554575e-22
-3.7578964e-21
-6.6550892e-22
4.881037e-21
1.5057174e-21
-4.5596044e-22
3.7974763e-23
2.5578355e-21
5.3754624e-21
-2.8139781e-21
3.1620983e-22
6.0303541e-22
-3.902245e-21
0
7.2313428e-21
7.3946795e-21
0
-1.0513101e-20
-8.7212364e-23
2.3417503e-22
-8.2958887e-23
-1.6827729e-21
7.0957939e-22
1.1528415e-21
3.7409225e-21
0
0
9.1898773e-23
1.8986637e-21
3.1903444e-22
-4.8064241e-22
-2.7764876e-22
-3.4879674e-21
2.7959009e-21
2.9298857e-21
-8.0264154e-21
3.5035331e-22
-3.324071e-22
-8.7688839e-21
-8.0770061e-21
8.387604e-21
-3.8002324e-21
-7.6758522e-23
0
-6.7400348e-21
0
0
-2.5028696e-22
-4.0188952e-23
4.4172705e-22
-1.2373224e-21
-4.5843954e-22
-3.392933e-21
6.5109052e-22
2.8034845e-21
-3.5166006e-21
-1.3554575e-22
5.3453034e-21
-4.044131e-21
-2.7764876e-22
4.7554878e-21
4.2257513e-21
-2.6616378e-21
2.3595182e-21
2.572155e-21
-5.4592151e-21
3.1620983e-22
2.8611095e-21
-4.2555523e-21
1.8954727e-21
4.3055259e-21
-3.7317036e-22
-3.7350765e-21
1.0092015e-20
-4.4099173e-22
-9.6391072e-22
2.3752825e-22
2.9092208e-21
0
-8.7187396e-22
1.2436458e-22
6.4927625e-22
0
0
4.2805575e-21
3.1903444e-22
-4.8064241e-22
1.3680828e-21
4.7442268e-21
-4.5596044e-22
-1.477101e-22
-5.2640881e-21
-2.0515252e-21
-2.7971899e-21
-4.3912537e-21
-1.4636972e-21
3.6536352e-21
-7.9362517e-21
3.5505681e-21
-3.4850786e-21
-7.0804271e-21
-1.0441675e-20
0
-7.1088528e-22
7.9092659e-22
-4.3978557e-22
0
-3.6569963e-22
-7.2806161e-22
7.3876937e-22
0
9.1898773e-23
9.1983906e-22
3.1903444e-22
-2.2536889e-21
-8.8564308e-21
-3.7803988e-23
-4.5596044e-22
-1.3052423e-21
2.7187543e-21
3.5035331e-22
-2.6055436e-21
3.1620983e-22
2.2921606e-21
2.4193925e-21
-1.8862197e-21
1.1151664e-20
1.0802856e-20
3.7186655e-21
0
0
1.6087219e-24
-4.0188952e-23
0
-6.5883792e-22
1.3800676e-22
1.2436458e-22
0
1.3921608e-21
2.3272546e-21
-1.3554575e-22
3.1903444e-22
5.0103646e-21
-3.7381609e-21
-1.562557e-21
2.3968033e-21
3.7974763e-23
1.8583079e-22
3.5035331e-22
-2.4139109e-21
-6.527059e-21
3.0322357e-21
-4.2265949e-21
6.01772e-21
3.5328608e-21
1.0777367e-20
-3.71049e-21
0
1.7230382e-22
-2.281297e-22
-4.0188952e-23
2.057219e-21
1.8826087e-21
-2.5487685e-21
1.2436458e-22
-1.5616289e-21
0
9.1898773e-23
-3.4704663e-21
-3.7011709e-21
-4.1942911e-21
-3.7301565e-21
-1.7441632e-21
-4.5596044e-22
-1.1130003e-21
2.5205587e-21
-4.6042322e-21
-9.7527218e-21
9.2953615e-21
6.0303541e-22
-1.0098293e-20
2.2499015e-21
-4.497943e-22
0
-1.7391789e-20
3.7341008e-22
2.6488272e-22
-4.7664298e-22
5.5260576e-22
0
-6.1113863e-22
5.4776034e-22
1.2436458e-22
2.2000991e-21
2.5883518e-21
-1.3417444e-21
-1.3554575e-22
1.3446195e-22
1.2794369e-21
6.4262801e-21
-6.4777076e-21
3.9878159e-21
1.3713681e-21
0
1.6439242e-22
4.1806167e-21
-2.2025941e-21
6.0303541e-22
3.9878974e-21
7.489699e-21
-7.6337913e-21
-3.4511358e-21
3.3209043e-21
-3.7341008e-22
8.926065e-23
9.3597414e-22
-6.5302447e-22
1.2197604e-21
0
7.2707626e-22
1.2436458e-22
-1.4631483e-21
4.0563119e-21
1.1551171e-21
-2.2765682e-22
3.1903444e-22
4.971558e-21
-2.7764876e-22
-4.7639415e-21
-1.073865e-20
2.6982444e-21
0
3.5035331e-22
-3.324071e-22
3.1620983e-22
6.0303541e-22
7.6610161e-23
0
3.5064618e-21
0
3.3127886e-21
-6.3846472e-21
1.7104367e-22
2.2966695e-22
5.071508e-22
-7.8191393e-22
0
1.3800676e-22
2.1523082e-22
-9.1239223e-22
0
9.1898773e-23
3.1763321e-21
-3.6731189e-21
3.392065e-21
-9.2531992e-23
6.1871394e-21
9.8025073e-21
1.5505439e-21
2.5021246e-21
3.5035331e-22
-4.8233999e-21
3.1620983e-22
-7.9159734e-21
7.6610161e-23
4.0994582e-21
-1.1173185e-20
3.4342886e-21
0
6.7424544e-21
0
4.7650824e-22
1.3462014e-21
-1.2580371e-21
0
5.4410341e-22
3.3498349e-23
-8.1930582e-22
0
3.724131e-21
-2.2765682e-22
-3.6638139e-21
-2.957759e-22
-2.7764876e-22
-3.7803988e-23
5.5512309e-21
2.2365963e-22
-1.016987e-20
5.0725341e-21
-5.18458e-21
3.1620983e-22
7.0704999e-21
3.9592922e-21
-3.7174615e-21
-4.0155226e-21
3.7317036e-22
6.5932336e-21
-6.3534796e-21
2.6237165e-22
-2.2533621e-22
5.4724882e-22
-7.780969e-22
0
1.1283119e-21
-2.4803532e-21
0
0
2.2014395e-21
-1.3554575e-22
-3.6545317e-21
-2.408446e-21
3.1351292e-21
1.464728e-21
-3.8237094e-21
-1.468117e-21
-2.4899101e-21
1.6439242e-22
-5.1736317e-21
3.1620983e-22
7.0556052e-21
8.1957278e-21
-5.9354548e-21
3.4802559e-21
0
0
-3.7341008e-22
0
1.6087219e-24
5.0314781e-22
4.3211395e-22
1.8111226e-21
-1.4340897e-21
2.1523082e-22
0
-3.8353183e-21
-1.0519681e-21
-1.3546951e-21
2.2089015e-21
-5.6966754e-21
-2.7764876e-22
2.9599161e-21
-3.0747592e-21
4.3608846e-21
0
-2.185172e-21
4.4978959e-21
-3.9244674e-21
9.0624649e-21
7.6610161e-23
8.1444078e-21
-7.6758522e-23
3.4091719e-21
0
3.7341008e-22
1.729071e-22
1.6087219e-24
-4.0188952e-23
7.7429851e-22
-6.4693347e-22
-1.4304684e-21
1.2436458e-22
0
0
-1.1410715e-21
-1.1679438e-21
3.1903444e-22
-2.2150711e-21
-2.7764876e-22
3.1379226e-21
-3.253426e-21
3.7974763e-23
0
5.363142e-22
4.3009235e-21
2.4313667e-21
-7.8366314e-21
-8.0046924e-21
1.8451369e-21
7.3755779e-21
0
1.3836617e-20
-3.5269168e-21
0
1.6087219e-24
-6.1573919e-23
0
1.1568196e-21
1.3800676e-22
9.5618673e-22
1.4418251e-21
0
1.2301817e-21
8.9432928e-22
-8.0585873e-22
-4.8064241e-22
2.9264069e-21
-2.2313635e-22
-1.851275e-21
8.0881599e-21
-2.6575309e-21
7.7365591e-21
1.8857853e-21
3.1620983e-22
-5.805068e-21
7.7663438e-21
0
-7.6758522e-23
-7.5313998e-21
-3.7329475e-22
0
0
-6.9249283e-22
-3.0987048e-22
0
4.4701289e-23
-1.4232524e-21
1.2436458e-22
-8.1045371e-22
0
1.3192987e-21
8.9181247e-22
3.1903444e-22
-2.0217377e-21
-3.6589911e-21
-3.7803988e-23
-3.0542498e-21
2.6530684e-21
-7.58281e-21
-4.6863301e-21
-3.324071e-22
5.0239273e-22
6.0303541e-22
1.9943455e-21
-1.8361296e-21
-7.6758522e-23
0
1.3399422e-20
1.0161157e-20
8.759883e-23
4.4997953e-22
-3.5198137e-22
3.4030157e-22
0
1.1162703e-21
1.8707538e-21
-2.9608761e-21
0
0
4.1480666e-21
3.1903444e-22
-5.8307406e-21
-7.0247115e-21
4.4149819e-21
-4.5596044e-22
3.7974763e-23
0
3.5035331e-22
-3.324071e-22
3.1620983e-22
6.0303541e-22
-3.7494874e-21
0
6.9507675e-21
3.7491388e-21
6.8704415e-21
6.6342969e-21
0
-2.2202881e-22
-4.0188952e-23
-3.8337863e-22
0
2.282757e-22
1.2436458e-22
-2.1469204e-21
9.1636163e-23
1.3137556e-21
-1.3554575e-22
3.1903444e-22
1.4217604e-21
-2.7764876e-22
-3.7803988e-23
5.4555192e-21
3.7974763e-23
0
-1.9706417e-21
-3.324071e-22
3.1620983e-22
8.964133e-21
7.6610161e-23
0
1.0811805e-20
-3.3677182e-21
0
0
0
2.4459745e-22
8.0570862e-22
4.4016262e-23
6.3961065e-22
-1.8992383e-21
1.2436458e-22
-1.4277825e-21
0
-1.0352979e-21
2.0883656e-21
3.1903444e-22
-2.0091148e-21
-2.7764876e-22
-3.7803988e-23
-5.7973403e-21
-1.0743244e-21
5.0810849e-21
5.3529209e-21
-1.1687504e-20
3.1620983e-22
-1.7617759e-21
-9.8146702e-21
-3.645402e-21
6.9164616e-21
3.3594881e-21
-3.232715e-21
0
0
1.6087219e-24
-4.0188952e-23
0
4.4701289e-23
1.3800676e-22
1.2436458e-22
-7.1214662e-22
2.5134586e-21
2.4326816e-21
-1.3554575e-22
3.1903444e-22
-4.0838127e-21
-4.6276553e-22
-3.7803988e-23
-4.7765253e-21
-2.7373342e-21
5.2549527e-21
3.5035331e-22
-3.324071e-22
-5.9367849e-21
6.0303541e-22
-3.7215051e-21
4.0093831e-21
1.0760472e-20
3.7317036e-22
-2.0095479e-20
-3.1075489e-21
1.7003077e-22
2.2361068e-22
2.262134e-22
1.6103317e-21
-1.820717e-21
1.1970115e-21
1.2436458e-22
0
0
0
3.2774968e-21
-1.7187718e-21
-4.075459e-21
-2.7764876e-22
-3.1627485e-21
-7.7018999e-21
-4.2083383e-21
-2.4356786e-21
3.5035331e-22
4.411479e-21
4.6608684e-21
6.0303541e-22
6.132591e-21
3.6276065e-21
-7.4088761e-21
3.7162587e-21
0
3.0999546e-21
0
2.2306815e-22
-4.0188952e-23
2.0302725e-21
0
1.3800676e-22
1.8506235e-21
-3.0172866e-21
0
0
-1.1479317e-21
-2.6385953e-21
3.1058409e-21
1.4822906e-21
-1.5040181e-21
-2.0131002e-21
1.6978357e-21
-4.8594526e-21
3.5035331e-22
6.2091637e-21
8.9852021e-21
6.0303541e-22
7.6610161e-23
0
-3.9208319e-21
0
0
-6.558168e-21
0
2.2252695e-22
1.0629885e-21
1.5148678e-21
-5.8911526e-22
-1.8802758e-21
1.2436458e-22
1.4138766e-21
0
0
-1.3554575e-22
-6.0305902e-22
-4.8064241e-22
-2.7764876e-22
1.6101594e-21
2.280575e-21
-5.4747646e-21
0
3.5035331e-22
-3.324071e-22
3.1620983e-22
6.0303541e-22
7.6610161e-23
0
7.594423e-21
0
0
0
-1.6881306e-22
1.6087219e-24
-1.0434385e-22
-7.9959916e-22
-5.4297429e-22
6.1883224e-22
1.2436458e-22
3.0034487e-21
0
-1.2053894e-21
1.879342e-21
-3.5448982e-21
-4.0505203e-21
-2.7764876e-22
-1.8675253e-21
-3.3713283e-21
-2.7121127e-21
7.6252574e-21
5.4825757e-21
1.837472e-21
3.1620983e-22
6.0303541e-22
3.8377339e-21
-3.9739656e-21
1.0285521e-20
0
9.5802208e-21
-6.5279762e-21
7.0586079e-24
2.4134622e-22
-4.0188952e-23
0
-6.7564199e-22
1.1875766e-21
-1.5899339e-21
1.4982775e-21
0
0
-2.1455095e-21
-7.2062751e-21
-2.1690119e-21
1.2856563e-21
-3.7803988e-23
-4.5596044e-22
-5.4496662e-21
-1.8583079e-22
-4.3987684e-21
1.6460916e-21
4.4341843e-21
-5.2866257e-21
1.9525763e-21
3.2193858e-21
-3.8954463e-21
2.9373581e-21
-3.5588976e-21
1.5722224e-20
0
-2.1769382e-22
-4.0188952e-23
0
1.2590161e-21
-8.1894976e-22
-6.8536786e-22
2.1053044e-21
0
0
-2.1405975e-21
3.1903444e-22
-2.1648859e-21
1.2818359e-21
-1.3044057e-21
-4.5596044e-22
5.3274278e-21
0
2.626358e-21
-3.324071e-22
3.1620983e-22
-3.3138099e-21
7.6610161e-23
0
3.3604731e-21
0
-1.3084566e-20
0
0
-2.1715788e-22
-4.0188952e-23
1.5881464e-21
0
1.3800676e-22
1.7398718e-21
-3.6828715e-21
0
1.105347e-21
-2.1356975e-21
3.1903444e-22
1.1994851e-21
-2.7764876e-22
-3.7803988e-23
8.9898109e-22
3.7974763e-23
4.9861951e-21
3.5035331e-22
-3.324071e-22
3.1620983e-22
1.1116332e-20
7.6610161e-23
1.1097108e-20
-7.6758522e-23
0
0
0
0
4.579704e-22
2.6445936e-22
-3.7411196e-22
0
1.3800676e-22
1.2436458e-22
6.9834233e-22
0
-3.3079373e-21
-1.3554575e-22
-3.5090632e-21
-4.8064241e-22
3.0112117e-21
2.8518884e-21
-4.5596044e-22
2.2365963e-22
0
2.9871691e-21
-2.4811527e-21
-3.7716477e-21
6.0303541e-22
-7.7451053e-21
0
-7.6758522e-23
-3.2863168e-21
0
-3.047312e-21
8.8695606e-23
1.6087219e-24
-4.0188952e-23
4.1721397e-22
-5.3582847e-22
1.3800676e-22
2.1523082e-22
6.9663572e-22
-1.3209933e-21
0
-1.3554575e-22
3.1903444e-22
-1.088193e-20
-4.6276553e-22
-1.6644516e-21
-4.5596044e-22
3.7974763e-23
0
7.1284306e-21
-4.9915513e-21
1.4961112e-20
2.5471351e-21
7.6610161e-23
7.1145775e-21
3.3353348e-21
0
3.1545768e-21
2.6664549e-21
3.3280858e-22
1.6087219e-24
2.2041103e-22
0
1.2029234e-21
1.3800676e-22
1.2436458e-22
-6.9493328e-22
0
1.0972631e-21
2.0342e-21
3.1903444e-22
3.0399038e-21
-1.8219449e-21
-3.7803988e-23
8.8907171e-22
-2.4890553e-21
-2.5684592e-21
3.5035331e-22
-2.4706634e-21
3.1620983e-22
-1.3363133e-21
7.6610161e-23
-3.5485955e-21
-7.6758522e-23
0
0
3.0324361e-21
0
-2.1502721e-22
-4.0188952e-23
1.1141277e-21
0
-8.9758263e-22
3.3498349e-23
-9.1302948e-23
0
0
-1.931995e-21
3.1903444e-22
1.1831216e-21
1.4479902e-21
-4.5259742e-21
8.857847e-22
3.7974763e-23
-2.1909749e-21
5.363142e-22
-2.4654378e-21
3.1620983e-22
6.0303541e-22
7.6610161e-23
7.4527364e-21
-7.6758522e-23
-3.2622823e-21
-1.6069181e-20
-3.0250254e-21
0
2.3761296e-22
-4.0188952e-23
0
-1.2419707e-21
-8.9527244e-22
1.2436458e-22
-1.2917788e-21
0
2.3676108e-21
-3.2835144e-21
3.1903444e-22
3.0236202e-21
2.7958662e-21
-3.0846847e-21
6.969857e-22
2.7383537e-21
0
9.6936159e-21
-4.5880432e-21
3.1620983e-22
6.0303541e-22
-3.6116077e-21
1.0966707e-20
-7.6758522e-23
0
9.7678121e-21
0
-1.687424e-22
1.6087219e-24
-4.0188952e-23
1.1527052e-21
0
1.3800676e-22
1.2436458e-22
-6.8985087e-22
9.1636163e-23
0
-1.3554575e-22
3.1903444e-22
-4.8064241e-22
1.2553532e-21
-3.7803988e-23
-4.5596044e-22
1.0443539e-20
2.365203e-21
-1.8870009e-21
-3.324071e-22
3.1620983e-22
1.3481489e-21
7.6610161e-23
0
-7.6758522e-23
-3.7317036e-22
0
3.7341008e-22
0
1.6087219e-24
-4.0188952e-23
0
-5.7347084e-22
1.3800676e-22
9.1840113e-22
7.7946796e-22
0
-2.1731526e-21
-1.3554575e-22
3.1903444e-22
-4.8064241e-22
2.7808624e-21
-3.7803988e-23
-3.119825e-21
3.7974763e-23
4.7188458e-21
3.5035331e-22
-3.324071e-22
-5.7262146e-21
2.5234959e-21
7.6610161e-23
0
-7.6758522e-23
-6.8500175e-21
0
0
-8.0447257e-23
-2.129173e-22
-4.0188952e-23
1.1913092e-21
6.1677067e-22
1.5421771e-21
-6.6773149e-22
-2.2420557e-21
0
5.7871998e-21
-1.3554575e-22
4.9806717e-21
4.6469036e-21
-5.2244374e-21
-3.7803988e-23
3.5300714e-21
5.0305803e-21
2.3536569e-21
-6.3289433e-21
1.7798491e-21
8.5392699e-21
4.8071266e-21
-2.1267425e-21
3.5054464e-21
7.0210112e-21
0
6.2172069e-21
0
-2.4781059e-22
-1.8289e-23
-4.0188952e-23
-7.7773659e-22
8.9402578e-23
2.0959274e-21
1.2436458e-22
1.3696113e-21
1.3001167e-21
0
-1.3554575e-22
3.1903444e-22
-4.8064241e-22
-4.6276553e-22
6.0002177e-21
-4.5596044e-22
-2.4522275e-21
-2.5337358e-21
3.5035331e-22
-3.324071e-22
6.3291374e-21
2.8866776e-21
-3.5756866e-21
7.3666494e-21
-1.0512244e-20
3.2226148e-21
-3.1010066e-21
3.7341008e-22
0
1.6087219e-24
7.7110459e-22
7.3192724e-22
0
-3.2776512e-22
1.2436458e-22
6.831321e-22
2.5943268e-21
2.3410568e-21
-1.3554575e-22
3.1903444e-22
-4.8064241e-22
2.7584939e-21
-3.7803988e-23
2.1884219e-21
3.7974763e-23
0
2.5659169e-21
-3.324071e-22
4.6873976e-21
4.7884224e-21
-3.566761e-21
0
-7.6758522e-23
-3.2147393e-21
0
0
-7.9858905e-23
1.6087219e-24
4.7090804e-22
0
1.0910698e-21
-2.7400639e-21
1.2436458e-22
0
0
-3.4117785e-21
-1.0169528e-21
3.1903444e-22
4.4258887e-21
-2.7764876e-22
-3.0429818e-21
8.6299953e-22
3.7974763e-23
0
-1.8597958e-21
8.4269808e-21
4.8638082e-21
8.5826171e-21
7.6610161e-23
3.7288972e-22
-7.6758522e-23
3.2068831e-21
1.3090064e-20
3.3470653e-21
3.2218428e-22
1.6087219e-24
-4.0188952e-23
-1.1365476e-21
5.2179645e-22
-2.7332511e-21
1.2436458e-22
1.4508975e-21
0
0
1.8067322e-21
3.1903444e-22
1.1508711e-21
-5.1798643e-21
-3.7803988e-23
-4.5596044e-22
7.8253149e-21
0
-4.2451035e-21
-3.324071e-22
1.0636829e-20
6.2943616e-21
7.6610161e-23
3.4713053e-21
1.0285135e-20
0
-6.1566547e-21
-2.9663882e-21
-7.9469062e-23
-2.302065e-22
-4.0188952e-23
3.6328714e-22
-1.7847426e-21
-1.801724e-21
-3.1872263e-21
1.447575e-21
0
1.0707411e-21
1.8940967e-21
3.1903444e-22
-2.957759e-22
1.4144369e-21
2.768276e-21
1.0420809e-21
-7.5455574e-21
-4.6500754e-21
-2.2209285e-21
2.1263204e-21
2.6733639e-21
6.6530098e-21
-1.7317525e-21
-6.9256442e-21
-7.6758522e-23
3.7317036e-22
-9.5857083e-21
-5.5448677e-21
7.9274855e-23
1.6087219e-24
-6.1573919e-23
1.4936136e-21