/*--------------------------------*- C++ -*----------------------------------*\
| =========                 |                                                 |
| \\      /  F ield         | OpenFOAM: The Open Source CFD Toolbox           |
|  \\    /   O peration     | Version:  v2012                                 |
|   \\  /    A nd           | Website:  www.openfoam.com                      |
|    \\/     M anipulation  |                                                 |
\*---------------------------------------------------------------------------*/
FoamFile
{
    version     2.0;
    format      ascii;
    class       volScalarField;
    location    "0";
    object      V;
}
// * * * * * * * * * * * * * * * * * * * * * * * * * * * * * * * * * * * * * //

dimensions      [0 3 0 0 0 0 0];


internalField   nonuniform List<scalar> 
113400
(
6.5936028e-13
1.9780808e-12
3.2968014e-12
4.615522e-12
5.9342425e-12
7.2529631e-12
8.5716836e-12
9.8904042e-12
1.1209125e-11
1.2527845e-11
1.3846566e-11
1.5165286e-11
1.6484007e-11
1.7802728e-11
1.9121448e-11
2.0440169e-11
2.1758889e-11
2.307761e-11
2.439633e-11
2.5715051e-11
2.7033771e-11
2.8352492e-11
2.9671213e-11
3.0989933e-11
3.2308654e-11
3.3627374e-11
3.4946095e-11
3.6264815e-11
6.6097558e-13
1.9829267e-12
3.3048779e-12
4.626829e-12
5.9487802e-12
7.2707313e-12
8.5926825e-12
9.9146336e-12
1.1236585e-11
1.2558536e-11
1.3880487e-11
1.5202438e-11
1.6524389e-11
1.7846341e-11
1.9168292e-11
2.0490243e-11
2.1812194e-11
2.3134145e-11
2.4456096e-11
2.5778047e-11
2.7099999e-11
2.842195e-11
2.9743901e-11
3.1065852e-11
3.2387804e-11
3.3709754e-11
3.5031706e-11
3.6353657e-11
6.6259483e-13
1.9877845e-12
3.3129742e-12
4.6381638e-12
5.9633535e-12
7.2885431e-12
8.6137328e-12
9.9389224e-12
1.1264112e-11
1.2589302e-11
1.3914491e-11
1.5239681e-11
1.6564871e-11
1.789006e-11
1.921525e-11
2.054044e-11
2.1865629e-11
2.3190819e-11
2.4516009e-11
2.5841198e-11
2.7166388e-11
2.8491578e-11
2.9816767e-11
3.1141957e-11
3.2467147e-11
3.3792336e-11
3.5117526e-11
3.6442716e-11
6.6421805e-13
1.9926542e-12
3.3210903e-12
4.6495264e-12
5.9779625e-12
7.3063986e-12
8.6348347e-12
9.9632707e-12
1.1291707e-11
1.2620143e-11
1.3948579e-11
1.5277015e-11
1.6605451e-11
1.7933887e-11
1.9262323e-11
2.059076e-11
2.1919196e-11
2.3247632e-11
2.4576068e-11
2.5904504e-11
2.723294e-11
2.8561376e-11
2.9889812e-11
3.1218248e-11
3.2546685e-11
3.3875121e-11
3.5203557e-11
3.6531993e-11
6.6584525e-13
1.9975357e-12
3.3292262e-12
4.6609167e-12
5.9926072e-12
7.3242977e-12
8.6559882e-12
9.9876787e-12
1.1319369e-11
1.265106e-11
1.398275e-11
1.5314441e-11
1.6646131e-11
1.7977822e-11
1.9309512e-11
2.0641203e-11
2.1972893e-11
2.3304584e-11
2.4636274e-11
2.5967965e-11
2.7299655e-11
2.8631346e-11
2.9963036e-11
3.1294727e-11
3.2626417e-11
3.3958108e-11
3.5289798e-11
3.6621489e-11
6.6747643e-13
2.0024293e-12
3.3373822e-12
4.672335e-12
6.0072879e-12
7.3422408e-12
8.6771936e-12
1.0012146e-11
1.1347099e-11
1.2682052e-11
1.4017005e-11
1.5351958e-11
1.6686911e-11
1.8021864e-11
1.9356817e-11
2.0691769e-11
2.2026722e-11
2.3361675e-11
2.4696628e-11
2.6031581e-11
2.7366534e-11
2.8701487e-11
3.0036439e-11
3.1371392e-11
3.2706345e-11
3.4041298e-11
3.5376251e-11
3.6711204e-11
6.6911161e-13
2.0073348e-12
3.3455581e-12
4.6837813e-12
6.0220045e-12
7.3602277e-12
8.698451e-12
1.0036674e-11
1.1374897e-11
1.2713121e-11
1.4051344e-11
1.5389567e-11
1.672779e-11
1.8066014e-11
1.9404237e-11
2.074246e-11
2.2080683e-11
2.3418906e-11
2.475713e-11
2.6095353e-11
2.7433576e-11
2.8771799e-11
3.0110023e-11
3.1448246e-11
3.2786469e-11
3.4124692e-11
3.5462915e-11
3.6801139e-11
6.707508e-13
2.0122524e-12
3.353754e-12
4.6952556e-12
6.0367572e-12
7.3782588e-12
8.7197604e-12
1.0061262e-11
1.1402764e-11
1.2744265e-11
1.4085767e-11
1.5427268e-11
1.676877e-11
1.8110272e-11
1.9451773e-11
2.0793275e-11
2.2134776e-11
2.3476278e-11
2.4817779e-11
2.6159281e-11
2.7500783e-11
2.8842284e-11
3.0183786e-11
3.1525287e-11
3.2866789e-11
3.4208291e-11
3.5549792e-11
3.6891294e-11
6.72394e-13
2.017182e-12
3.36197e-12
4.706758e-12
6.051546e-12
7.396334e-12
8.741122e-12
1.008591e-11
1.1430698e-11
1.2775486e-11
1.4120274e-11
1.5465062e-11
1.680985e-11
1.8154638e-11
1.9499426e-11
2.0844214e-11
2.2189002e-11
2.353379e-11
2.4878578e-11
2.6223366e-11
2.7568154e-11
2.8912942e-11
3.025773e-11
3.1602518e-11
3.2947306e-11
3.4292094e-11
3.5636882e-11
3.698167e-11
6.7404123e-13
2.0221237e-12
3.3702061e-12
4.7182886e-12
6.066371e-12
7.4144535e-12
8.7625359e-12
1.0110618e-11
1.1458701e-11
1.2806783e-11
1.4154866e-11
1.5502948e-11
1.6851031e-11
1.8199113e-11
1.9547196e-11
2.0895278e-11
2.224336e-11
2.3591443e-11
2.4939525e-11
2.6287608e-11
2.763569e-11
2.8983773e-11
3.0331855e-11
3.1679938e-11
3.302802e-11
3.4376102e-11
3.5724185e-11
3.7072267e-11
6.7569249e-13
2.0270775e-12
3.3784624e-12
4.7298474e-12
6.0812324e-12
7.4326173e-12
8.7840023e-12
1.0135387e-11
1.1486772e-11
1.2838157e-11
1.4189542e-11
1.5540927e-11
1.6892312e-11
1.8243697e-11
1.9595082e-11
2.0946467e-11
2.2297852e-11
2.3649237e-11
2.5000622e-11
2.6352007e-11
2.7703392e-11
2.9054777e-11
3.0406162e-11
3.1757547e-11
3.3108932e-11
3.4460317e-11
3.5811702e-11
3.7163087e-11
6.773478e-13
2.0320434e-12
3.386739e-12
4.7414346e-12
6.0961302e-12
7.4508258e-12
8.8055214e-12
1.0160217e-11
1.1514913e-11
1.2869608e-11
1.4224304e-11
1.5578999e-11
1.6933695e-11
1.8288391e-11
1.9643086e-11
2.0997782e-11
2.2352477e-11
2.3707173e-11
2.5061869e-11
2.6416564e-11
2.777126e-11
2.9125955e-11
3.0480651e-11
3.1835347e-11
3.3190042e-11
3.4544738e-11
3.5899433e-11
3.7254129e-11
6.7900716e-13
2.0370215e-12
3.3950358e-12
4.7530501e-12
6.1110644e-12
7.4690787e-12
8.827093e-12
1.0185107e-11
1.1543122e-11
1.2901136e-11
1.425915e-11
1.5617165e-11
1.6975179e-11
1.8333193e-11
1.9691208e-11
2.1049222e-11
2.2407236e-11
2.376525e-11
2.5123265e-11
2.6481279e-11
2.7839293e-11
2.9197308e-11
3.0555322e-11
3.1913336e-11
3.3271351e-11
3.4629365e-11
3.5987379e-11
3.7345394e-11
6.8067058e-13
2.0420117e-12
3.4033529e-12
4.7646941e-12
6.1260352e-12
7.4873764e-12
8.8487176e-12
1.0210059e-11
1.15714e-11
1.2932741e-11
1.4294082e-11
1.5655423e-11
1.7016765e-11
1.8378106e-11
1.9739447e-11
2.1100788e-11
2.2462129e-11
2.382347e-11
2.5184812e-11
2.6546153e-11
2.7907494e-11
2.9268835e-11
3.0630176e-11
3.1991517e-11
3.3352859e-11
3.47142e-11
3.6075541e-11
3.7436882e-11
6.8233808e-13
2.0470143e-12
3.4116904e-12
4.7763666e-12
6.1410428e-12
7.5057189e-12
8.8703951e-12
1.0235071e-11
1.1599748e-11
1.2964424e-11
1.43291e-11
1.5693776e-11
1.7058452e-11
1.8423128e-11
1.9787804e-11
2.1152481e-11
2.2517157e-11
2.3881833e-11
2.5246509e-11
2.6611185e-11
2.7975861e-11
2.9340538e-11
3.0705214e-11
3.206989e-11
3.3434566e-11
3.4799242e-11
3.6163918e-11
3.7528595e-11
6.8400968e-13
2.052029e-12
3.4200484e-12
4.7880678e-12
6.1560871e-12
7.5241065e-12
8.8921258e-12
1.0260145e-11
1.1628165e-11
1.2996184e-11
1.4364203e-11
1.5732223e-11
1.7100242e-11
1.8468261e-11
1.9836281e-11
2.12043e-11
2.2572319e-11
2.3940339e-11
2.5308358e-11
2.6676377e-11
2.8044397e-11
2.9412416e-11
3.0780436e-11
3.2148455e-11
3.3516475e-11
3.4884494e-11
3.6252513e-11
3.7620532e-11
6.8568536e-13
2.0570561e-12
3.4284268e-12
4.7997975e-12
6.1711682e-12
7.5425389e-12
8.9139096e-12
1.028528e-11
1.1656651e-11
1.3028022e-11
1.4399393e-11
1.5770763e-11
1.7142134e-11
1.8513505e-11
1.9884875e-11
2.1256246e-11
2.2627617e-11
2.3998988e-11
2.5370358e-11
2.6741729e-11
2.81131e-11
2.948447e-11
3.0855841e-11
3.2227212e-11
3.3598583e-11
3.4969953e-11
3.6341324e-11
3.7712695e-11
6.8736514e-13
2.0620954e-12
3.4368257e-12
4.811556e-12
6.1862863e-12
7.5610166e-12
8.9357469e-12
1.0310477e-11
1.1685208e-11
1.3059938e-11
1.4434668e-11
1.5809398e-11
1.7184129e-11
1.8558859e-11
1.9933589e-11
2.1308319e-11
2.268305e-11
2.405778e-11
2.543251e-11
2.6807241e-11
2.8181971e-11
2.9556701e-11
3.0931431e-11
3.2306162e-11
3.3680892e-11
3.5055622e-11
3.6430353e-11
3.7805083e-11
6.8904905e-13
2.0671471e-12
3.4452452e-12
4.8233433e-12
6.2014414e-12
7.5795395e-12
8.9576376e-12
1.0335736e-11
1.1713834e-11
1.3091932e-11
1.447003e-11
1.5848128e-11
1.7226226e-11
1.8604324e-11
1.9982422e-11
2.136052e-11
2.2738619e-11
2.4116717e-11
2.5494815e-11
2.6872913e-11
2.8251011e-11
2.9629109e-11
3.1007207e-11
3.2385305e-11
3.3763404e-11
3.5141501e-11
3.65196e-11
3.7897698e-11
6.9073707e-13
2.0722112e-12
3.4536854e-12
4.8351595e-12
6.2166337e-12
7.5981078e-12
8.979582e-12
1.0361056e-11
1.174253e-11
1.3124004e-11
1.4505479e-11
1.5886953e-11
1.7268427e-11
1.8649901e-11
2.0031375e-11
2.1412849e-11
2.2794323e-11
2.4175798e-11
2.5557272e-11
2.6938746e-11
2.832022e-11
2.9701694e-11
3.1083168e-11
3.2464642e-11
3.3846117e-11
3.5227591e-11
3.6609065e-11
3.7990539e-11
6.9242924e-13
2.0772877e-12
3.4621462e-12
4.8470047e-12
6.2318632e-12
7.6167217e-12
9.0015801e-12
1.0386439e-11
1.1771297e-11
1.3156156e-11
1.4541014e-11
1.5925873e-11
1.7310731e-11
1.869559e-11
2.0080448e-11
2.1465307e-11
2.2850165e-11
2.4235023e-11
2.5619882e-11
2.700474e-11
2.8389599e-11
2.9774457e-11
3.1159316e-11
3.2544174e-11
3.3929033e-11
3.5313891e-11
3.669875e-11
3.8083608e-11
6.9412555e-13
2.0823766e-12
3.4706277e-12
4.8588788e-12
6.2471299e-12
7.635381e-12
9.0236321e-12
1.0411883e-11
1.1800134e-11
1.3188385e-11
1.4576636e-11
1.5964888e-11
1.7353139e-11
1.874139e-11
2.0129641e-11
2.1517892e-11
2.2906143e-11
2.4294394e-11
2.5682645e-11
2.7070896e-11
2.8459147e-11
2.9847398e-11
3.123565e-11
3.2623901e-11
3.4012152e-11
3.5400403e-11
3.6788654e-11
3.8176905e-11
6.9582601e-13
2.087478e-12
3.4791301e-12
4.8707821e-12
6.2624341e-12
7.6540861e-12
9.0457382e-12
1.043739e-11
1.1829042e-11
1.3220694e-11
1.4612346e-11
1.6003998e-11
1.739565e-11
1.8787302e-11
2.0178954e-11
2.1570606e-11
2.2962258e-11
2.435391e-11
2.5745562e-11
2.7137214e-11
2.8528866e-11
2.9920519e-11
3.1312171e-11
3.2703823e-11
3.4095475e-11
3.5487127e-11
3.6878779e-11
3.8270431e-11
6.9753065e-13
2.0925919e-12
3.4876533e-12
4.8827145e-12
6.2777759e-12
7.6728372e-12
9.0678984e-12
1.046296e-11
1.1858021e-11
1.3253082e-11
1.4648144e-11
1.6043205e-11
1.7438266e-11
1.8833328e-11
2.0228389e-11
2.162345e-11
2.3018511e-11
2.4413573e-11
2.5808634e-11
2.7203695e-11
2.8598757e-11
2.9993818e-11
3.1388879e-11
3.2783941e-11
3.4179002e-11
3.5574063e-11
3.6969124e-11
3.8364186e-11
6.9923944e-13
2.0977183e-12
3.4961972e-12
4.8946761e-12
6.293155e-12
7.6916339e-12
9.0901128e-12
1.0488592e-11
1.1887071e-11
1.3285549e-11
1.4684028e-11
1.6082507e-11
1.7480986e-11
1.8879465e-11
2.0277944e-11
2.1676423e-11
2.3074902e-11
2.4473381e-11
2.5871859e-11
2.7270338e-11
2.8668817e-11
3.0067296e-11
3.1465775e-11
3.2864254e-11
3.4262733e-11
3.5661212e-11
3.7059691e-11
3.8458169e-11
7.0095245e-13
2.1028573e-12
3.5047622e-12
4.9066671e-12
6.308572e-12
7.7104769e-12
9.1123818e-12
1.0514287e-11
1.1916192e-11
1.3318096e-11
1.4720001e-11
1.6121906e-11
1.7523811e-11
1.8925716e-11
2.0327621e-11
2.1729526e-11
2.3131431e-11
2.4533336e-11
2.593524e-11
2.7337145e-11
2.873905e-11
3.0140955e-11
3.154286e-11
3.2944765e-11
3.434667e-11
3.5748575e-11
3.715048e-11
3.8552384e-11
7.0266963e-13
2.1080089e-12
3.5133482e-12
4.9186874e-12
6.3240267e-12
7.729366e-12
9.1347052e-12
1.0540044e-11
1.1945384e-11
1.3350723e-11
1.4756062e-11
1.6161402e-11
1.7566741e-11
1.897208e-11
2.0377419e-11
2.1782759e-11
2.3188098e-11
2.4593437e-11
2.5998776e-11
2.7404116e-11
2.8809455e-11
3.0214794e-11
3.1620133e-11
3.3025473e-11
3.4430812e-11
3.5836151e-11
3.724149e-11
3.864683e-11
7.0439103e-13
2.1131731e-12
3.5219551e-12
4.9307372e-12
6.3395192e-12
7.7483013e-12
9.1570833e-12
1.0565865e-11
1.1974648e-11
1.3383429e-11
1.4792212e-11
1.6200994e-11
1.7609776e-11
1.9018558e-11
2.042734e-11
2.1836122e-11
2.3244904e-11
2.4653686e-11
2.6062468e-11
2.747125e-11
2.8880032e-11
3.0288814e-11
3.1697596e-11
3.3106378e-11
3.4515161e-11
3.5923942e-11
3.7332724e-11
3.8741506e-11
7.0611664e-13
2.1183499e-12
3.5305832e-12
4.9428165e-12
6.3550498e-12
7.767283e-12
9.1795163e-12
1.059175e-11
1.2003983e-11
1.3416216e-11
1.4828449e-11
1.6240683e-11
1.7652916e-11
1.9065149e-11
2.0477383e-11
2.1889616e-11
2.3301849e-11
2.4714082e-11
2.6126316e-11
2.7538549e-11
2.8950782e-11
3.0363016e-11
3.1775249e-11
3.3187482e-11
3.4599716e-11
3.6011949e-11
3.7424182e-11
3.8836415e-11
7.0784648e-13
2.1235394e-12
3.5392324e-12
4.9549253e-12
6.3706183e-12
7.7863112e-12
9.2020042e-12
1.0617697e-11
1.203339e-11
1.3449083e-11
1.4864776e-11
1.6280469e-11
1.7696162e-11
1.9111855e-11
2.0527548e-11
2.1943241e-11
2.3358934e-11
2.4774627e-11
2.619032e-11
2.7606013e-11
2.9021706e-11
3.0437398e-11
3.1853091e-11
3.3268784e-11
3.4684478e-11
3.610017e-11
3.7515863e-11
3.8931556e-11
7.0958056e-13
2.1287417e-12
3.5479028e-12
4.9670639e-12
6.386225e-12
7.8053861e-12
9.2245472e-12
1.0643708e-11
1.206287e-11
1.3482031e-11
1.4901192e-11
1.6320353e-11
1.7739514e-11
1.9158675e-11
2.0577836e-11
2.1996997e-11
2.3416158e-11
2.4835319e-11
2.6254481e-11
2.7673642e-11
2.9092803e-11
3.0511964e-11
3.1931125e-11
3.3350286e-11
3.4769447e-11
3.6188608e-11
3.7607769e-11
3.9026931e-11
7.1131889e-13
2.1339567e-12
3.5565944e-12
4.9792322e-12
6.40187e-12
7.8245077e-12
9.2471455e-12
1.0669783e-11
1.2092421e-11
1.3515059e-11
1.4937697e-11
1.6360334e-11
1.7782972e-11
1.920561e-11
2.0628248e-11
2.2050885e-11
2.3473523e-11
2.4896161e-11
2.6318799e-11
2.7741437e-11
2.9164074e-11
3.0586712e-11
3.200935e-11
3.3431988e-11
3.4854626e-11
3.6277263e-11
3.7699901e-11
3.9122539e-11
7.1306147e-13
2.1391844e-12
3.5653074e-12
4.9914303e-12
6.4175533e-12
7.8436762e-12
9.2697991e-12
1.0695922e-11
1.2122045e-11
1.3548168e-11
1.4974291e-11
1.6400414e-11
1.7826537e-11
1.925266e-11
2.0678783e-11
2.2104906e-11
2.3531029e-11
2.4957152e-11
2.6383274e-11
2.7809397e-11
2.923552e-11
3.0661643e-11
3.2087766e-11
3.3513889e-11
3.4940012e-11
3.6366135e-11
3.7792258e-11
3.9218381e-11
7.1480832e-13
2.1444249e-12
3.5740416e-12
5.0036582e-12
6.4332748e-12
7.8628915e-12
9.2925081e-12
1.0722125e-11
1.2151741e-11
1.3581358e-11
1.5010975e-11
1.6440591e-11
1.7870208e-11
1.9299825e-11
2.0729441e-11
2.2159058e-11
2.3588674e-11
2.5018291e-11
2.6447908e-11
2.7877524e-11
2.9307141e-11
3.0736758e-11
3.2166374e-11
3.3595991e-11
3.5025608e-11
3.6455224e-11
3.7884841e-11
3.9314457e-11
7.1655946e-13
2.1496784e-12
3.5827973e-12
5.0159162e-12
6.4490352e-12
7.8821541e-12
9.315273e-12
1.0748392e-11
1.2181511e-11
1.361463e-11
1.5047749e-11
1.6480868e-11
1.7913987e-11
1.9347105e-11
2.0780224e-11
2.2213343e-11
2.3646462e-11
2.5079581e-11
2.65127e-11
2.7945819e-11
2.9378938e-11
3.0812057e-11
3.2245176e-11
3.3678295e-11
3.5111414e-11
3.6544532e-11
3.7977651e-11
3.941077e-11
7.1831488e-13
2.1549446e-12
3.5915744e-12
5.0282041e-12
6.4648339e-12
7.9014637e-12
9.3380934e-12
1.0774723e-11
1.2211353e-11
1.3647983e-11
1.5084612e-11
1.6521242e-11
1.7957872e-11
1.9394502e-11
2.0831131e-11
2.2267761e-11
2.3704391e-11
2.5141021e-11
2.657765e-11
2.801428e-11
2.945091e-11
3.088754e-11
3.2324169e-11
3.3760799e-11
3.5197429e-11
3.6634059e-11
3.8070688e-11
3.9507318e-11
7.200746e-13
2.1602238e-12
3.600373e-12
5.0405222e-12
6.4806714e-12
7.9208206e-12
9.3609698e-12
1.0801119e-11
1.2241268e-11
1.3681417e-11
1.5121567e-11
1.6561716e-11
1.8001865e-11
1.9442014e-11
2.0882163e-11
2.2322313e-11
2.3762462e-11
2.5202611e-11
2.664276e-11
2.8082909e-11
2.9523059e-11
3.0963208e-11
3.2403357e-11
3.3843506e-11
3.5283656e-11
3.6723805e-11
3.8163954e-11
3.9604103e-11
7.2183863e-13
2.1655159e-12
3.6091932e-12
5.0528704e-12
6.4965477e-12
7.940225e-12
9.3839022e-12
1.0827579e-11
1.2271257e-11
1.3714934e-11
1.5158611e-11
1.6602289e-11
1.8045966e-11
1.9489643e-11
2.093332e-11
2.2376998e-11
2.3820675e-11
2.5264352e-11
2.6708029e-11
2.8151707e-11
2.9595384e-11
3.1039061e-11
3.2482739e-11
3.3926416e-11
3.5370093e-11
3.681377e-11
3.8257448e-11
3.9701125e-11
7.2360699e-13
2.170821e-12
3.6180349e-12
5.0652489e-12
6.5124629e-12
7.9596769e-12
9.4068908e-12
1.0854105e-11
1.2301319e-11
1.3748533e-11
1.5195747e-11
1.6642961e-11
1.8090175e-11
1.9537389e-11
2.0984603e-11
2.2431817e-11
2.3879031e-11
2.5326245e-11
2.6773459e-11
2.8220673e-11
2.9667887e-11
3.11151e-11
3.2562314e-11
3.4009528e-11
3.5456743e-11
3.6903956e-11
3.835117e-11
3.9798384e-11
7.2537968e-13
2.176139e-12
3.6268984e-12
5.0776578e-12
6.5284171e-12
7.9791765e-12
9.4299358e-12
1.0880695e-11
1.2331455e-11
1.3782214e-11
1.5232973e-11
1.6683733e-11
1.8134492e-11
1.9585251e-11
2.1036011e-11
2.248677e-11
2.3937529e-11
2.5388289e-11
2.6839048e-11
2.8289807e-11
2.9740567e-11
3.1191326e-11
3.2642086e-11
3.4092845e-11
3.5543605e-11
3.6994364e-11
3.8445123e-11
3.9895882e-11
7.2715671e-13
2.1814701e-12
3.6357836e-12
5.090097e-12
6.5444104e-12
7.9987239e-12
9.4530373e-12
1.0907351e-11
1.2361664e-11
1.3815978e-11
1.5270291e-11
1.6724604e-11
1.8178918e-11
1.9633231e-11
2.1087545e-11
2.2541858e-11
2.3996172e-11
2.5450485e-11
2.6904798e-11
2.8359112e-11
2.9813425e-11
3.1267739e-11
3.2722052e-11
3.4176366e-11
3.5630679e-11
3.7084992e-11
3.8539306e-11
3.9993619e-11
7.2893809e-13
2.1868143e-12
3.6446905e-12
5.1025666e-12
6.5604428e-12
8.018319e-12
9.4761952e-12
1.0934071e-11
1.2391948e-11
1.3849824e-11
1.53077e-11
1.6765576e-11
1.8223452e-11
1.9681328e-11
2.1139205e-11
2.2597081e-11
2.4054957e-11
2.5512833e-11
2.6970709e-11
2.8428586e-11
2.9886462e-11
3.1344338e-11
3.2802214e-11
3.426009e-11
3.5717967e-11
3.7175843e-11
3.8633719e-11
4.0091595e-11
7.3072384e-13
2.1921715e-12
3.6536192e-12
5.1150669e-12
6.5765145e-12
8.0379622e-12
9.4994099e-12
1.0960858e-11
1.2422305e-11
1.3883753e-11
1.5345201e-11
1.6806648e-11
1.8268096e-11
1.9729544e-11
2.1190991e-11
2.2652439e-11
2.4113887e-11
2.5575334e-11
2.7036782e-11
2.849823e-11
2.9959677e-11
3.1421125e-11
3.2882573e-11
3.434402e-11
3.5805468e-11
3.7266916e-11
3.8728363e-11
4.0189811e-11
7.3251397e-13
2.1975419e-12
3.6625698e-12
5.1275978e-12
6.5926257e-12
8.0576536e-12
9.5226816e-12
1.0987709e-11
1.2452738e-11
1.3917765e-11
1.5382793e-11
1.6847821e-11
1.8312849e-11
1.9777877e-11
2.1242905e-11
2.2707933e-11
2.4172961e-11
2.5637989e-11
2.7103017e-11
2.8568045e-11
3.0033073e-11
3.1498101e-11
3.2963129e-11
3.4428156e-11
3.5893185e-11
3.7358212e-11
3.882324e-11
4.0288268e-11
7.3430847e-13
2.2029254e-12
3.6715424e-12
5.1401593e-12
6.6087762e-12
8.0773932e-12
9.5460101e-12
1.1014627e-11
1.2483244e-11
1.3951861e-11
1.5420478e-11
1.6889095e-11
1.8357712e-11
1.9826329e-11
2.1294946e-11
2.2763563e-11
2.423218e-11
2.5700796e-11
2.7169413e-11
2.863803e-11
3.0106647e-11
3.1575264e-11
3.3043881e-11
3.4512498e-11
3.5981115e-11
3.7449732e-11
3.8918349e-11
4.0386966e-11
7.3610738e-13
2.2083221e-12
3.6805369e-12
5.1527516e-12
6.6249664e-12
8.0971811e-12
9.5693959e-12
1.1041611e-11
1.2513825e-11
1.398604e-11
1.5458255e-11
1.693047e-11
1.8402684e-11
1.9874899e-11
2.1347114e-11
2.2819329e-11
2.4291543e-11
2.5763758e-11
2.7235973e-11
2.8708188e-11
3.0180402e-11
3.1652617e-11
3.3124832e-11
3.4597047e-11
3.6069262e-11
3.7541476e-11
3.9013691e-11
4.0485906e-11
7.3791069e-13
2.2137321e-12
3.6895535e-12
5.1653748e-12
6.6411962e-12
8.1170176e-12
9.592839e-12
1.106866e-11
1.2544482e-11
1.4020303e-11
1.5496124e-11
1.6971946e-11
1.8447767e-11
1.9923589e-11
2.139941e-11
2.2875231e-11
2.4351053e-11
2.5826874e-11
2.7302696e-11
2.8778517e-11
3.0254338e-11
3.173016e-11
3.3205981e-11
3.4681802e-11
3.6157624e-11
3.7633445e-11
3.9109267e-11
4.0585088e-11
7.3971842e-13
2.2191553e-12
3.6985921e-12
5.1780289e-12
6.6574658e-12
8.1369026e-12
9.6163395e-12
1.1095776e-11
1.2575213e-11
1.405465e-11
1.5534087e-11
1.7013524e-11
1.8492961e-11
1.9972397e-11
2.1451834e-11
2.2931271e-11
2.4410708e-11
2.5890145e-11
2.7369582e-11
2.8849018e-11
3.0328455e-11
3.1807892e-11
3.3287329e-11
3.4766766e-11
3.6246203e-11
3.7725639e-11
3.9205076e-11
4.0684513e-11
7.4153057e-13
2.2245917e-12
3.7076529e-12
5.190714e-12
6.6737752e-12
8.1568363e-12
9.6398974e-12
1.1122959e-11
1.260602e-11
1.4089081e-11
1.5572142e-11
1.7055203e-11
1.8538264e-11
2.0021325e-11
2.1504387e-11
2.2987448e-11
2.4470509e-11
2.595357e-11
2.7436631e-11
2.8919692e-11
3.0402753e-11
3.1885815e-11
3.3368876e-11
3.4851937e-11
3.6334998e-11
3.7818059e-11
3.930112e-11
4.0784182e-11
7.4334717e-13
2.2300415e-12
3.7167359e-12
5.2034302e-12
6.6901245e-12
8.1768189e-12
9.6635132e-12
1.1150208e-11
1.2636902e-11
1.4123596e-11
1.5610291e-11
1.7096985e-11
1.8583679e-11
2.0070374e-11
2.1557068e-11
2.3043762e-11
2.4530457e-11
2.6017151e-11
2.7503845e-11
2.899054e-11
3.0477234e-11
3.1963928e-11
3.3450623e-11
3.4937317e-11
3.6424012e-11
3.7910706e-11
3.93974e-11
4.0884094e-11
7.4516822e-13
2.2355047e-12
3.7258411e-12
5.2161775e-12
6.706514e-12
8.1968504e-12
9.6871869e-12
1.1177523e-11
1.266786e-11
1.4158196e-11
1.5648533e-11
1.7138869e-11
1.8629205e-11
2.0119542e-11
2.1609878e-11
2.3100215e-11
2.4590551e-11
2.6080888e-11
2.7571224e-11
2.9061561e-11
3.0551897e-11
3.2042233e-11
3.353257e-11
3.5022906e-11
3.6513243e-11
3.8003579e-11
3.9493916e-11
4.0984252e-11
7.4699373e-13
2.2409812e-12
3.7349686e-12
5.2289561e-12
6.7229436e-12
8.216931e-12
9.7109185e-12
1.1204906e-11
1.2698893e-11
1.4192881e-11
1.5686868e-11
1.7180856e-11
1.8674843e-11
2.0168831e-11
2.1662818e-11
2.3156806e-11
2.4650793e-11
2.614478e-11
2.7638768e-11
2.9132755e-11
3.0626743e-11
3.212073e-11
3.3614718e-11
3.5108705e-11
3.6602693e-11
3.809668e-11
3.9590668e-11
4.1084655e-11
7.4882371e-13
2.2464711e-12
3.7441186e-12
5.241766e-12
6.7394134e-12
8.2370608e-12
9.7347082e-12
1.1232356e-11
1.2730003e-11
1.422765e-11
1.5725298e-11
1.7222945e-11
1.8720593e-11
2.021824e-11
2.1715888e-11
2.3213535e-11
2.4711182e-11
2.620883e-11
2.7706477e-11
2.9204125e-11
3.0701772e-11
3.219942e-11
3.3697067e-11
3.5194714e-11
3.6692362e-11
3.8190009e-11
3.9687657e-11
4.1185304e-11
7.5065817e-13
2.2519745e-12
3.7532909e-12
5.2546072e-12
6.7559236e-12
8.2572399e-12
9.7585562e-12
1.1259873e-11
1.2761189e-11
1.4262505e-11
1.5763822e-11
1.7265138e-11
1.8766454e-11
2.0267771e-11
2.1769087e-11
2.3270403e-11
2.477172e-11
2.6273036e-11
2.7774352e-11
2.9275669e-11
3.0776985e-11
3.2278301e-11
3.3779618e-11
3.5280934e-11
3.6782251e-11
3.8283567e-11
3.9784883e-11
4.1286199e-11
7.5249713e-13
2.2574914e-12
3.7624857e-12
5.2674799e-12
6.7724742e-12
8.2774684e-12
9.7824627e-12
1.1287457e-11
1.2792451e-11
1.4297445e-11
1.580244e-11
1.7307434e-11
1.8812428e-11
2.0317423e-11
2.1822417e-11
2.3327411e-11
2.4832405e-11
2.63374e-11
2.7842394e-11
2.9347388e-11
3.0852382e-11
3.2357377e-11
3.3862371e-11
3.5367365e-11
3.687236e-11
3.8377354e-11
3.9882348e-11
4.1387342e-11
7.5434059e-13
2.2630218e-12
3.771703e-12
5.2803841e-12
6.7890653e-12
8.2977465e-12
9.8064277e-12
1.1315109e-11
1.282379e-11
1.4332471e-11
1.5841152e-11
1.7349834e-11
1.8858515e-11
2.0367196e-11
2.1875877e-11
2.3384558e-11
2.4893239e-11
2.6401921e-11
2.7910602e-11
2.9419283e-11
3.0927964e-11
3.2436645e-11
3.3945327e-11
3.5454008e-11
3.6962689e-11
3.847137e-11
3.9980051e-11
4.1488732e-11
7.5618857e-13
2.2685657e-12
3.7809429e-12
5.29332e-12
6.8056972e-12
8.3180743e-12
9.8304515e-12
1.1342829e-11
1.2855206e-11
1.4367583e-11
1.587996e-11
1.7392337e-11
1.8904714e-11
2.0417092e-11
2.1929469e-11
2.3441846e-11
2.4954223e-11
2.64666e-11
2.7978977e-11
2.9491354e-11
3.1003732e-11
3.2516109e-11
3.4028486e-11
3.5540863e-11
3.705324e-11
3.8565617e-11
4.0077994e-11
4.1590372e-11
7.5804108e-13
2.2741232e-12
3.7902054e-12
5.3062875e-12
6.8223697e-12
8.3384518e-12
9.854534e-12
1.1370616e-11
1.2886698e-11
1.440278e-11
1.5918863e-11
1.7434945e-11
1.8951027e-11
2.0467109e-11
2.1983191e-11
2.3499273e-11
2.5015355e-11
2.6531438e-11
2.804752e-11
2.9563602e-11
3.1079684e-11
3.2595766e-11
3.4111848e-11
3.5627931e-11
3.7144013e-11
3.8660095e-11
4.0176177e-11
4.1692259e-11
7.5989812e-13
2.2796944e-12
3.7994906e-12
5.3192868e-12
6.8390831e-12
8.3588793e-12
9.8786756e-12
1.1398472e-11
1.2918268e-11
1.4438064e-11
1.5957861e-11
1.7477657e-11
1.8997453e-11
2.0517249e-11
2.2037046e-11
2.3556842e-11
2.5076638e-11
2.6596434e-11
2.811623e-11
2.9636027e-11
3.1155823e-11
3.2675619e-11
3.4195415e-11
3.5715212e-11
3.7235008e-11
3.8754804e-11
4.02746e-11
4.1794397e-11
7.6175971e-13
2.2852791e-12
3.8087986e-12
5.332318e-12
6.8558374e-12
8.3793568e-12
9.9028763e-12
1.1426396e-11
1.2949915e-11
1.4473435e-11
1.5996954e-11
1.7520473e-11
1.9043993e-11
2.0567512e-11
2.2091032e-11
2.3614551e-11
2.5138071e-11
2.666159e-11
2.8185109e-11
2.9708629e-11
3.1232148e-11
3.2755668e-11
3.4279187e-11
3.5802707e-11
3.7326226e-11
3.8849745e-11
4.0373265e-11
4.1896784e-11
7.6362587e-13
2.2908776e-12
3.8181294e-12
5.3453811e-12
6.8726329e-12
8.3998846e-12
9.9271363e-12
1.1454388e-11
1.298164e-11
1.4508892e-11
1.6036143e-11
1.7563395e-11
1.9090647e-11
2.0617899e-11
2.214515e-11
2.3672402e-11
2.5199654e-11
2.6726906e-11
2.8254157e-11
2.9781409e-11
3.1308661e-11
3.2835912e-11
3.4363164e-11
3.5890416e-11
3.7417668e-11
3.8944919e-11
4.0472171e-11
4.1999423e-11
7.654966e-13
2.2964898e-12
3.827483e-12
5.3584762e-12
6.8894694e-12
8.4204626e-12
9.9514558e-12
1.1482449e-11
1.3013442e-11
1.4544435e-11
1.6075429e-11
1.7606422e-11
1.9137415e-11
2.0668408e-11
2.2199401e-11
2.3730395e-11
2.5261388e-11
2.6792381e-11
2.8323374e-11
2.9854367e-11
3.1385361e-11
3.2916354e-11
3.4447347e-11
3.597834e-11
3.7509334e-11
3.9040326e-11
4.057132e-11
4.2102313e-11
7.6737191e-13
2.3021157e-12
3.8368595e-12
5.3716033e-12
6.9063472e-12
8.441091e-12
9.9758348e-12
1.1510579e-11
1.3045322e-11
1.4580066e-11
1.611481e-11
1.7649554e-11
1.9184298e-11
2.0719041e-11
2.2253785e-11
2.3788529e-11
2.5323273e-11
2.6858017e-11
2.839276e-11
2.9927504e-11
3.1462248e-11
3.2996992e-11
3.4531736e-11
3.606648e-11
3.7601224e-11
3.9135967e-11
4.0670711e-11
4.2205455e-11
7.6925181e-13
2.3077554e-12
3.846259e-12
5.3847627e-12
6.9232663e-12
8.4617699e-12
1.0000274e-11
1.1538777e-11
1.3077281e-11
1.4615784e-11
1.6154288e-11
1.7692792e-11
1.9231295e-11
2.0769799e-11
2.2308302e-11
2.3846806e-11
2.538531e-11
2.6923813e-11
2.8462317e-11
3.0000821e-11
3.1539324e-11
3.3077828e-11
3.4616331e-11
3.6154835e-11
3.7693339e-11
3.9231842e-11
4.0770346e-11
4.2308849e-11
7.7113632e-13
2.3134089e-12
3.8556816e-12
5.3979542e-12
6.9402268e-12
8.4824995e-12
1.0024772e-11
1.1567045e-11
1.3109317e-11
1.465159e-11
1.6193863e-11
1.7736135e-11
1.9278408e-11
2.0820681e-11
2.2362953e-11
2.3905226e-11
2.5447498e-11
2.6989771e-11
2.8532044e-11
3.0074316e-11
3.1616589e-11
3.3158862e-11
3.4701134e-11
3.6243407e-11
3.778568e-11
3.9327952e-11
4.0870225e-11
4.2412497e-11
7.7302544e-13
2.3190763e-12
3.8651272e-12
5.4111781e-12
6.957229e-12
8.5032798e-12
1.0049331e-11
1.1595382e-11
1.3141433e-11
1.4687483e-11
1.6233534e-11
1.7779585e-11
1.9325636e-11
2.0871687e-11
2.2417738e-11
2.3963789e-11
2.550984e-11
2.705589e-11
2.8601941e-11
3.0147992e-11
3.1694043e-11
3.3240094e-11
3.4786145e-11
3.6332196e-11
3.7878247e-11
3.9424297e-11
4.0970348e-11
4.2516399e-11
7.749192e-13
2.3247576e-12
3.874596e-12
5.4244344e-12
6.9742728e-12
8.5241112e-12
1.007395e-11
1.1623788e-11
1.3173626e-11
1.4723465e-11
1.6273303e-11
1.7823142e-11
1.937298e-11
2.0922818e-11
2.2472657e-11
2.4022495e-11
2.5572333e-11
2.7122172e-11
2.867201e-11
3.0221849e-11
3.1771687e-11
3.3321525e-11
3.4871364e-11
3.6421202e-11
3.7971041e-11
3.9520879e-11
4.1070717e-11
4.2620556e-11
7.7681758e-13
2.3304528e-12
3.8840879e-12
5.4377231e-12
6.9913583e-12
8.5449934e-12
1.0098629e-11
1.1652264e-11
1.3205899e-11
1.4759534e-11
1.6313169e-11
1.7866804e-11
1.942044e-11
2.0974075e-11
2.252771e-11
2.4081345e-11
2.563498e-11
2.7188615e-11
2.8742251e-11
3.0295886e-11
3.1849521e-11
3.3403156e-11
3.4956791e-11
3.6510426e-11
3.8064062e-11
3.9617697e-11
4.1171332e-11
4.2724967e-11
7.7872063e-13
2.3361619e-12
3.8936032e-12
5.4510444e-12
7.0084857e-12
8.565927e-12
1.0123368e-11
1.1680809e-11
1.3238251e-11
1.4795692e-11
1.6353133e-11
1.7910575e-11
1.9468016e-11
2.1025457e-11
2.2582898e-11
2.414034e-11
2.5697781e-11
2.7255222e-11
2.8812663e-11
3.0370105e-11
3.1927546e-11
3.3484987e-11
3.5042428e-11
3.659987e-11
3.8157311e-11
3.9714752e-11
4.1272194e-11
4.2829635e-11
7.8062833e-13
2.341885e-12
3.9031416e-12
5.4643983e-12
7.025655e-12
8.5869116e-12
1.0148168e-11
1.1709425e-11
1.3270682e-11
1.4831938e-11
1.6393195e-11
1.7954452e-11
1.9515708e-11
2.1076965e-11
2.2638222e-11
2.4199478e-11
2.5760735e-11
2.7321991e-11
2.8883248e-11
3.0444505e-11
3.2005761e-11
3.3567018e-11
3.5128275e-11
3.6689531e-11
3.8250788e-11
3.9812045e-11
4.1373301e-11
4.2934558e-11
7.8254071e-13
2.3476221e-12
3.9127036e-12
5.477785e-12
7.0428664e-12
8.6079478e-12
1.0173029e-11
1.1738111e-11
1.3303192e-11
1.4868274e-11
1.6433355e-11
1.7998436e-11
1.9563518e-11
2.1128599e-11
2.2693681e-11
2.4258762e-11
2.5823844e-11
2.7388925e-11
2.8954006e-11
3.0519088e-11
3.2084169e-11
3.3649251e-11
3.5214332e-11
3.6779414e-11
3.8344495e-11
3.9909576e-11
4.1474658e-11
4.3039739e-11
7.8445778e-13
2.3533733e-12
3.9222889e-12
5.4912045e-12
7.06012e-12
8.6290356e-12
1.0197951e-11
1.1766867e-11
1.3335782e-11
1.4904698e-11
1.6473613e-11
1.8042529e-11
1.9611445e-11
2.118036e-11
2.2749276e-11
2.4318191e-11
2.5887107e-11
2.7456022e-11
2.9024938e-11
3.0593853e-11
3.2162769e-11
3.3731685e-11
3.53006e-11
3.6869516e-11
3.8438432e-11
4.0007347e-11
4.1576262e-11
4.3145178e-11
7.8637954e-13
2.3591386e-12
3.9318977e-12
5.5046568e-12
7.0774158e-12
8.6501749e-12
1.0222934e-11
1.1795693e-11
1.3368452e-11
1.4941211e-11
1.651397e-11
1.8086729e-11
1.9659488e-11
2.1232248e-11
2.2805007e-11
2.4377766e-11
2.5950525e-11
2.7523284e-11
2.9096043e-11
3.0668802e-11
3.2241561e-11
3.381432e-11
3.5387079e-11
3.6959838e-11
3.8532598e-11
4.0105356e-11
4.1678115e-11
4.3250875e-11
7.88306e-13
2.364918e-12
3.94153e-12
5.518142e-12
7.094754e-12
8.671366e-12
1.0247978e-11
1.182459e-11
1.3401202e-11
1.4977814e-11
1.6554426e-11
1.8131038e-11
1.970765e-11
2.1284262e-11
2.2860874e-11
2.4437486e-11
2.6014098e-11
2.759071e-11
2.9167322e-11
3.0743934e-11
3.2320546e-11
3.3897158e-11
3.547377e-11
3.7050382e-11
3.8626994e-11
4.0203606e-11
4.1780218e-11
4.335683e-11
7.9023719e-13
2.3707116e-12
3.951186e-12
5.5316603e-12
7.1121347e-12
8.6926091e-12
1.0273083e-11
1.1853558e-11
1.3434032e-11
1.5014507e-11
1.6594981e-11
1.8175455e-11
1.975593e-11
2.1336404e-11
2.2916879e-11
2.4497353e-11
2.6077827e-11
2.7658302e-11
2.9238776e-11
3.081925e-11
3.2399725e-11
3.3980199e-11
3.5560674e-11
3.7141148e-11
3.8721623e-11
4.0302097e-11
4.1882571e-11