/*--------------------------------*- C++ -*----------------------------------*\
  =========                 |
  \\      /  F ield         | OpenFOAM: The Open Source CFD Toolbox
   \\    /   O peration     | Website:  https://openfoam.org
    \\  /    A nd           | Version:  7
     \\/     M anipulation  |
\*---------------------------------------------------------------------------*/
FoamFile
{
    version     2.0;
    format      ascii;
    class       volScalarField;
    location    "80000";
    object      a;
}
// * * * * * * * * * * * * * * * * * * * * * * * * * * * * * * * * * * * * * //

dimensions      [0 -1 0 0 0 0 0];

internalField   nonuniform List<scalar> 
87000
(
2.8259669
2.825968
2.8259709
2.8259769
2.8259898
2.8260222
2.8261269
2.8266058
2.8309922
2.8900793
2.8260158
2.8260215
2.8260428
2.826088
2.8261876
2.8264305
2.8271098
2.8300819
2.8453324
2.8884211
2.8261414
2.8261612
2.8262303
2.8263761
2.8266848
2.8273737
2.8293373
2.8366871
2.8612352
2.881123
2.8263914
2.8264441
2.826606
2.8269351
2.8275882
2.8291318
2.8334969
2.8456212
2.8751285
2.8714769
2.8268185
2.8269336
2.8272379
2.8278217
2.8290833
2.8320188
2.8391729
2.8543255
2.8851548
2.8630796
2.8274844
2.8276868
2.8281731
2.8291791
2.8312498
2.8361496
2.8460476
2.8642232
2.8911349
2.8564892
2.8284547
2.8287508
2.8294864
2.8310541
2.8344246
2.8409573
2.8535439
2.8734406
2.8941308
2.851449
2.8297702
2.8301496
2.8312653
2.8334938
2.8383451
2.8465899
2.8612219
2.8811641
2.8950388
2.8473655
2.8314719
2.8319924
2.8335286
2.8368315
2.8426127
2.8526684
2.8667424
2.8874304
2.8944848
2.8435601
2.8335864
2.8343097
2.8363039
2.840594
2.8476136
2.8590638
2.8736874
2.8921173
2.8930277
2.8406295
2.836125
2.8371161
2.8395628
2.8447297
2.8527346
2.8653798
2.8799832
2.8954276
2.8909766
2.8381301
2.8390743
2.8401433
2.8435394
2.8493536
2.8583555
2.8715083
2.8853987
2.8976832
2.8885603
2.8358195
2.842386
2.8436068
2.8479602
2.8541518
2.8640012
2.8772644
2.8900175
2.8988318
2.8858555
2.8331643
2.8461976
2.847584
2.8523674
2.8592711
2.8695756
2.8802164
2.8938377
2.8992839
2.8829637
2.8305857
2.8502406
2.8520066
2.8572291
2.86448
2.8749879
2.8851034
2.8968997
2.8992114
2.8799847
2.8281616
2.8545116
2.857051
2.8621128
2.8697321
2.8801789
2.8894741
2.8989862
2.8984119
2.876929
2.8258285
2.8590482
2.8622266
2.8672654
2.8750122
2.8850963
2.8932969
2.9007013
2.8971959
2.873423
2.8235556
2.8636877
2.8673265
2.8723381
2.8801929
2.8896325
2.896523
2.9017231
2.8956194
2.8700841
2.8211943
2.8684578
2.8723308
2.8773616
2.8850346
2.8937409
2.8991476
2.9021295
2.8936976
2.8669192
2.8184739
2.8733966
2.8773868
2.8823088
2.8895699
2.8973909
2.9011906
2.9022595
2.8914744
2.8637951
2.8157391
2.8782019
2.8824313
2.8871798
2.8938157
2.8977767
2.902842
2.9017264
2.889011
2.8601136
2.813013
2.8829525
2.8873308
2.8917794
2.8976964
2.9005265
2.9039868
2.9008044
2.8863267
2.856597
2.8103383
2.8878773
2.8919595
2.896058
2.9011851
2.9026618
2.9045461
2.8995283
2.8834658
2.8532116
2.8076883
2.8926611
2.8963534
2.9000105
2.9042623
2.9046043
2.9048833
2.8979234
2.8801921
2.8498975
2.8050415
2.8971989
2.9004457
2.9035905
2.906727
2.9059
2.9045923
2.896011
2.8768573
2.8461421
2.8020511
2.901426
2.9041811
2.9067605
2.9090136
2.9067875
2.9038923
2.8937661
2.8736191
2.8423727
2.7989733
2.9052873
2.9075151
2.9092729
2.9105688
2.9072807
2.9028021
2.8912493
2.8704681
2.8386807
2.7958935
2.9086928
2.9102333
2.9117335
2.9119427
2.9073063
2.9013412
2.8884848
2.8666139
2.8350571
2.7928034
2.9115751
2.9128172
2.9132931
2.9125207
2.9068052
2.8995313
2.8853104
2.8627848
2.8313581
2.7897019
2.914185
2.91458
2.9146061
2.9128843
2.9058712
2.8973587
2.8818796
2.859017
2.8272887
2.7865913
2.9162426
2.9161069
2.915326
2.9126537
2.9045321
2.8948497
2.8785067
2.8552717
2.823239
2.7833476
2.9174725
2.9169101
2.9156349
2.9119715
2.902794
2.8920379
2.8751756
2.8509057
2.8192186
2.7798771
2.918261
2.917353
2.9153447
2.9107742
2.9006357
2.8886887
2.8710151
2.846598
2.815233
2.7763742
2.9182821
2.9171732
2.9145238
2.9091371
2.8980764
2.8851139
2.8668783
2.8423445
2.8109886
2.7727802
2.9177676
2.9164019
2.9132323
2.9070834
2.8951617
2.8815687
2.8627851
2.8380534
2.8065312
2.7690357
2.916717
2.9151341
2.9114507
2.9045747
2.8915896
2.8777078
2.8583729
2.8331936
2.8020947
2.7652637
2.915087
2.9133494
2.9091585
2.9016445
2.8878578
2.8732541
2.8535593
2.8283735
2.7976624
2.7613835
2.9129317
2.9110196
2.9064321
2.8980535
2.8841304
2.8688217
2.8487615
2.8235887
2.7932214
2.7573479
2.9101646
2.9082213
2.9031327
2.8942279
2.879684
2.8642888
2.8439919
2.8187298
2.7884382
2.7532446
2.9068775
2.9047485
2.8992067
2.8904021
2.8749433
2.8590175
2.8385577
2.8133728
2.7836186
2.7489907
2.9027359
2.9006769
2.8952589
2.8857541
2.8702106
2.8537682
2.8331091
2.8080138
2.7786506
2.7446137
2.8984489
2.8965612
2.8908318
2.8808776
2.8648178
2.8485415
2.8276825
2.8026745
2.7735824
2.7402055
2.893904
2.8917693
2.8857551
2.8760022
2.8591614
2.8425679
2.8219482
2.7972428
2.7683989
2.7356388
2.888424
2.8864627
2.8806385
2.8702318
2.8535217
2.8365692
2.8158642
2.7914947
2.7630465
2.7309488
2.8829077
2.881125
2.8748213
2.8644354
2.8472804
2.8306596
2.8098624
2.785718
2.7577115
2.7261645
2.8767915
2.8748685
2.868744
2.8585585
2.8441051
2.8240927
2.8038927
2.7797289
2.7521418
2.7212028
2.8702241
2.8685122
2.8626311
2.8518532
2.8377739
2.8173038
2.797319
2.7735657
2.7465028
2.7161529
2.8636365
2.8618707
2.8555982
2.8451632
2.8308617
2.8105474
2.790647
2.7671992
2.7406235
2.7109251
2.8560985
2.8545461
2.848561
2.8382204
2.8238298
2.8034804
2.7837529
2.7606996
2.7346012
2.7055316
2.8485146
2.8472138
2.8412707
2.8307546
2.8168413
2.7962219
2.7767037
2.7540327
2.7284025
2.7000846
2.8405108
2.8393073
2.8334081
2.8233304
2.8094167
2.7886716
2.7695953
2.7473178
2.7221992
2.6944747
2.83152
2.8311348
2.8256142
2.8157117
2.8018448
2.7848568
2.762089
2.7404336
2.7158192
2.6887474
2.8225722
2.8229844
2.8174714
2.8077418
2.7939861
2.7772148
2.7544915
2.7332259
2.709224
2.6828291
2.8131859
2.8142333
2.8090061
2.7994462
2.7858451
2.7693551
2.7466916
2.725943
2.7025185
2.6767447
2.803442
2.8052163
2.80027
2.7908307
2.7775851
2.7614604
2.7387393
2.7185249
2.6957208
2.6705902
2.7933926
2.795974
2.7912652
2.7820682
2.7692795
2.7533875
2.7349331
2.7108979
2.6887838
2.6642538
2.7830044
2.7865255
2.781921
2.7730723
2.7606667
2.7449983
2.7269501
2.7030953
2.6816648
2.657877
2.7723592
2.7767462
2.7723909
2.7638899
2.7518643
2.7367083
2.719009
2.6991485
2.6741833
2.6512574
2.7615765
2.7668537
2.7625805
2.7544415
2.7429244
2.7280447
2.7107624
2.6913653
2.6665804
2.6444522
2.7505415
2.7566657
2.7525038
2.7448802
2.733724
2.7193141
2.7024512
2.6835553
2.6589373
2.6375382
2.7392052
2.7463169
2.7423163
2.7350602
2.7243242
2.7104417
2.6941046
2.6756043
2.6554968
2.6303523
2.7276955
2.735743
2.7319309
2.7251999
2.7147116
2.7014497
2.6855793
2.6677439
2.6480764
2.6270008
2.716078
2.7250843
2.7214186
2.7151513
2.704971
2.6922752
2.6769332
2.6596141
2.6405203
2.6199279
2.7042331
2.7139412
2.7107154
2.7048354
2.6950739
2.6829508
2.6681202
2.6514654
2.6330709
2.6131029
2.6922458
2.7026453
2.6999006
2.6941422
2.685021
2.6733583
2.6592586
2.6430971
2.6252983
2.6060466
2.6800538
2.6911939
2.6888929
2.6834113
2.6749434
2.6636933
2.6502427
2.6347441
2.6176835
2.599107
2.6678136
2.6797511
2.6778719
2.6725491
2.6648591
2.6539493
2.641349
2.6263269
2.6099005
2.5921288
2.6554793
2.6681368
2.6667277
2.6617071
2.6546094
2.6442223
2.6319359
2.6178219
2.6020029
2.584866
2.6431881
2.6563872
2.6555126
2.650697
2.6440682
2.6342581
2.6225604
2.6091004
2.5938526
2.5774268
2.6307881
2.6428623
2.6443366
2.6396715
2.6331975
2.6243239
2.6129271
2.6001234
2.5855601
2.5696155
2.6184748
2.6293881
2.632946
2.6285992
2.6223353
2.6141608
2.6033077
2.5908654
2.5771002
2.5617475
2.6070205
2.6160963
2.6215021
2.617359
2.6113566
2.6039065
2.5934561
2.5815775
2.5682904
2.5536559
2.5953709
2.6027129
2.6095638
2.6061309
2.6003144
2.5930807
2.5836138
2.5720707
2.559369
2.5454131
2.5837689
2.5894697
2.5975817
2.5946788
2.5892419
2.582245
2.5735627
2.562582
2.5502288
2.5368963
2.572031
2.5762396
2.5856322
2.5833067
2.5780462
2.5712964
2.5633677
2.5528485
2.5411195
2.5282128
2.5602656
2.563037
2.5735462
2.5717876
2.5668815
2.5603215
2.5525901
2.5431726
2.5318093
2.5193944
2.5484634
2.5499317
2.5615699
2.5602872
2.5554657
2.5492644
2.5418822
2.5333165
2.5223986
2.5104586
2.5365521
2.5367507
2.5475913
2.5485148
2.5441219
2.5382127
2.5310459
2.5228263
2.5128851
2.5014168
2.5246939
2.5237179
2.5334622
2.5363638
2.5326785
2.5270631
2.520159
2.5122183
2.5032754
2.4922706
2.5127521
2.5106427
2.5193814
2.52416
2.5211869
2.515822
2.5092219
2.5015565
2.4930065
2.4830162
2.5007579
2.497694
2.5054293
2.5119522
2.5096566
2.5044814
2.4982247
2.4908471
2.4826053
2.4735521
2.4887139
2.4859099
2.4915986
2.4997389
2.4980854
2.4931004
2.4871747
2.4800822
2.4721485
2.4634019
2.4766231
2.474058
2.4778707
2.486921
2.4858111
2.4816778
2.4760056
2.4692592
2.4616309
2.4531818
2.4644913
2.4621445
2.4642177
2.4722695
2.4735409
2.4702139
2.4647489
2.4583773
2.4510297
2.4429045
2.4523209
2.4501743
2.4506481
2.4578056
2.4612747
2.4587077
2.4534447
2.4474074
2.4403611
2.4326368
2.4401076
2.4381428
2.4371705
2.4435248
2.4490051
2.446722
2.4420894
2.4362916
2.4297819
2.4223865
2.4278452
2.4260449
2.4237746
2.4294062
2.4366173
2.4344704
2.4308465
2.4254075
2.418965
2.4115554
2.4155295
2.4138783
2.4104454
2.4154456
2.4220741
2.4226878
2.4194917
2.4139232
2.4076387
2.4005807
2.4031563
2.4016409
2.3984806
2.4015927
2.4074108
2.4101206
2.4070937
2.402238
2.3961957
2.3894411
2.39071
2.3893235
2.3864143
2.3877812
2.3927516
2.3974481
2.3944735
2.3904293
2.3845996
2.3780871
2.3781862
2.3769105
2.3742367
2.3740747
2.3783697
2.3832537
2.3817729
2.3782891
2.3728451
2.3665754
2.365575
2.3643992
2.361946
2.3606065
2.3642051
2.3682335
2.3689536
2.3655425
2.3609265
2.3548896
2.3532445
2.3521613
2.3498878
2.3471512
2.3499319
2.3532969
2.3560152
2.3526779
2.3488085
2.3429722
2.3401212
2.3390746
2.3368751
2.3335841
2.3355392
2.338426
2.3416895
2.3396559
2.3358552
2.3308321
2.3266071
2.3256323
2.32358
2.320507
2.3211259
2.3235731
2.3263649
2.3264433
2.3227276
2.3184435
2.3128698
2.3119597
2.31004
2.3071635
2.306654
2.3087114
2.311086
2.3130226
2.3093872
2.3052358
2.2988744
2.2980223
2.2962218
2.2935213
2.2920741
2.2938012
2.2957875
2.2979438
2.2957754
2.291706
2.2845817
2.2837814
2.2820877
2.2795449
2.2773488
2.2787842
2.2804167
2.2822056
2.2818661
2.2778776
2.269946
2.2691919
2.2675939
2.2651917
2.2624332
2.2636072
2.2649281
2.2663895
2.2676152
2.2636994
2.2549147
2.2542023
2.2526888
2.2504117
2.2473848
2.2482115
2.2492649
2.2504179
2.2516146
2.249095
2.2394291
2.2387532
2.2373141
2.2351472
2.2322646
2.2325358
2.233346
2.234217
2.2351261
2.2340224
2.223425
2.2227811
2.2214079
2.2193387
2.216584
2.2165119
2.2171021
2.217722
2.2183731
2.2184144
2.206826
2.2062099
2.2048941
2.20291
2.2002667
2.200068
2.2004566
2.2008503
2.2012583
2.201619
2.1895476
2.1889556
2.1876896
2.1857792
2.1832322
2.1831146
2.1833143
2.1835023
2.1836813
2.1838066
2.1714978
2.1709265
2.1697033
2.1678564
2.1654951
2.1655562
2.165577
2.165575
2.1655421
2.1654473
2.1525745
2.1520208
2.1508339
2.1490404
2.1473598
2.1472673
2.147134
2.1469557
2.146725
2.146419
2.1326667
2.1321277
2.130971
2.1292149
2.1283616
2.1281437
2.1278653
2.12752
2.1271011
2.126582
2.1116374
2.1111053
2.1099617
2.1086466
2.1083894
2.1080548
2.1076371
2.1071309
2.1065296
2.1057652
2.0893395
2.0888168
2.087907
2.0876554
2.0873069
2.0868576
2.0863033
2.0856355
2.0848043
2.0838327
2.0659837
2.0659198
2.0657196
2.0653995
2.0649592
2.0643959
2.0636729
2.0628069
2.0617936
2.0606156
2.042438
2.0423486
2.0420908
2.0416839
2.0411281
2.0404202
2.0395548
2.0385259
2.0373267
2.03592
2.0171964
2.017081
2.0167756
2.0162975
2.0156468
2.0148192
2.0138106
2.0125968
2.0111568
2.0094877
1.990167
1.9900275
1.9896729
1.9891106
1.9883376
1.9873575
1.9861646
1.9847517
1.9831083
1.9809817
1.9610661
1.9608961
1.960479
1.9598327
1.9589571
1.957848
1.9564997
1.9548755
1.9529672
1.9498095
1.9297901
1.9295888
1.9291072
1.9283637
1.9273578
1.9260848
1.9245368
1.9227065
1.9205752
1.916469
1.8961106
1.8958824
1.895346
1.8945192
1.8933972
1.8919555
1.8902056
1.8881372
1.8853756
1.8808077
1.8598681
1.8596045
1.858995
1.8580591
1.8567958
1.8552004
1.8532654
1.8509783
1.8474345
1.8427703
1.8212119
1.8209166
1.8202421
1.8192085
1.8178149
1.8160562
1.813923
1.8114049
1.8073017
1.8025325
1.7801065
1.7797812
1.7790456
1.7779195
1.7764028
1.774491
1.7721768
1.7693757
1.7650706
1.7602204
1.7367517
1.7363994
1.7356096
1.7344035
1.7327807
1.7307371
1.7282665
1.7253527
1.7210034
1.7161059
1.6915109
1.6911368
1.6903038
1.6890335
1.6873262
1.6851785
1.6825843
1.6795356
1.6754913
1.6705903
1.6449103
1.6445224
1.643664
1.6423565
1.6406005
1.638393
1.6357303
1.6326073
1.6290173
1.624298
1.5975537
1.5971566
1.5962819
1.5949509
1.5931653
1.5909236
1.5882227
1.5850589
1.5814273
1.5773227
1.5501467
1.5497509
1.5488825
1.5475506
1.5457651
1.5435255
1.5408297
1.5376753
1.5340591
1.5299777
1.5033738
1.5029816
1.502124
1.5008212
1.4990758
1.4968755
1.4942223
1.4911204
1.487568
1.483563
1.4578488
1.457465
1.4566279
1.4553571
1.4536554
1.451523
1.4489598
1.4459567
1.4425039
1.4386142
1.4140367
1.4136645
1.4128544
1.4116252
1.4099796
1.4079182
1.4054411
1.4025479
1.3992382
1.3955112
1.3722361
1.3718796
1.3711024
1.3699191
1.3683352
1.3663515
1.3639682
1.3611851
1.358002
1.3544184
1.3326368
1.3322542
1.3314638
1.3303323
1.3288181
1.3269219
1.3246424
1.3219809
1.3189372
1.3154978
1.2960587
1.295695
1.2949121
1.2937263
1.2921404
1.2901552
1.2877715
1.2849893
1.2819705
1.2786825
1.2613986
1.261053
1.2603089
1.2591818
1.2576741
1.2557865
1.2535193
1.2508724
1.2478458
1.2444393
1.2286064
1.2282769
1.2275669
1.2264905
1.2250506
1.2232476
1.2210817
1.218552
1.2156485
1.2123796
1.1975525
1.1972367
1.1965562
1.1955254
1.194142
1.1924086
1.1903261
1.187892
1.1851057
1.1819681
1.1681137
1.1678087
1.1671514
1.1661556
1.164823
1.1631541
1.1611488
1.1588066
1.156127
1.153109
1.140192
1.1398973
1.1392622
1.1382997
1.1370117
1.1353986
1.1334601
1.1311958
1.128605
1.1256867
1.11368
1.1133951
1.1127807
1.1118497
1.1106037
1.109043
1.1071637
1.1049673
1.102454
1.0996228
1.0884882
1.0882114
1.0876142
1.086709
1.0854976
1.0839804
1.0821569
1.0800268
1.0775889
1.0748343
1.0645338
1.0642641
1.063682
1.0627997
1.061619
1.0601401
1.0583627
1.0562864
1.0539105
1.0512339
1.041738
1.0414757
1.0409071
1.0400453
1.038892
1.0374473
1.0357112
1.033683
1.0313622
1.0287476
1.0200089
1.0197526
1.0191991
1.01836
1.0172372
1.0158308
1.0141332
1.0121483
1.009877
1.0073185
0.99929495
0.99904393
0.99850158
0.99767955
0.99657946
0.99520164
0.99354595
0.99161201
0.98938949
0.98688284
0.97953494
0.97928871
0.97875664
0.97795018
0.97687095
0.97551927
0.97389504
0.97199793
0.96982746
0.96737852
0.96066962
0.96042781
0.95990522
0.95911313
0.95805313
0.95672556
0.95513034
0.95326716
0.95113558
0.94873483
0.94264475
0.9424069
0.94189287
0.94111377
0.94007121
0.93876557
0.93719682
0.93536495
0.9332695
0.93090951
0.92549399
0.92524945
0.9247226
0.92392449
0.92287809
0.92159269
0.92004828
0.91824466
0.9161815
0.9138582
0.90908343
0.90884252
0.90832348
0.90753723
0.90648541
0.90516852
0.90363429
0.90185747
0.89982506
0.8975365
0.89336311
0.89312538
0.89261324
0.89183747
0.89079974
0.88950058
0.88794015
0.88615778
0.88415285
0.8818963
0.87828643
0.87805185
0.87754651
0.87678105
0.87575714
0.87447528
0.87293566
0.8711383
0.86912976
0.86690316
0.86381556
0.86358371
0.86308431
0.86232787
0.86131606
0.86004947
0.85852832
0.85675331
0.85472444
0.8525093
0.84991725
0.84968815
0.8491947
0.8484472
0.8474473
0.84619553
0.84469214
0.84293719
0.84093071
0.83868121
0.83749652
0.83700595
0.83598615
0.83509808
0.83410854
0.83286979
0.83138241
0.82964729
0.82766336
0.8254303
0.82590154
0.82542791
0.82444277
0.82296022
0.82127901
0.82005279
0.81858025
0.81686152
0.81489665
0.81268539
0.81456272
0.81410487
0.81315173
0.81171746
0.80980665
0.8077043
0.80624488
0.80454228
0.80259696
0.800408
0.80346917
0.80303208
0.80211016
0.8007231
0.79887569
0.7965734
0.79435845
0.79267112
0.79074312
0.78857408
0.7925136
0.79211801
0.79129087
0.78997452
0.78818768
0.78596067
0.78330106
0.78121411
0.77930265
0.77715335
0.78181121
0.78142947
0.78063053
0.77942817
0.77773645
0.77558242
0.77301022
0.77015041
0.76825667
0.76612825
0.77135105
0.77098248
0.77021037
0.76904842
0.76750186
0.76542974
0.76294412
0.76006604
0.75758047
0.75547398
0.7611292
0.76077331
0.76002706
0.75890404
0.75740912
0.75549616
0.7530955
0.75031586
0.74725144
0.7451691
0.75114057
0.75079632
0.75007379
0.74898648
0.74753981
0.7457395
0.74345531
0.74077512
0.73774431
0.73519442
0.74138463
0.74105135
0.7403512
0.73929758
0.73789599
0.73615227
0.73401642
0.7314363
0.72851845
0.7255308
0.73185804
0.73153517
0.73085629
0.7298347
0.72847599
0.72678614
0.72477234
0.72229631
0.71949216
0.71638161
0.72255456
0.72224176
0.72158349
0.72059291
0.71927565
0.71763773
0.71568688
0.71335232
0.7106626
0.7076803
0.7134754
0.71317231
0.71253391
0.71157332
0.71029626
0.70870891
0.70681873
0.70460406
0.70202551
0.6991681
0.7046167
0.70432322
0.70370459
0.7027739
0.7015371
0.70000064
0.69817226
0.69606094
0.69359645
0.69086417
0.69597645
0.69569239
0.69509301
0.69419123
0.69299293
0.69150451
0.68973682
0.68770074
0.68536414
0.68275949
0.68755531
0.68728132
0.68670271
0.6858324
0.68467655
0.68324194
0.68153664
0.67957033
0.67733727
0.67484475
0.67933685
0.67907307
0.67851559
0.67767742
0.67656513
0.67518601
0.67354875
0.67166365
0.66953674
0.66716431
0.6713405
0.67108715
0.67055091
0.6697445
0.66867432
0.66734743
0.66577224
0.66395866
0.66192203
0.65966771
0.6635348
0.66329278
0.66277997
0.66200917
0.66098721
0.65972168
0.65822164
0.65649766
0.654562
0.65240068
0.65592828
0.65569741
0.65520724
0.65447027
0.65349304
0.65228284
0.65084831
0.64920902
0.64737744
0.6453295
0.64850728
0.64828887
0.64782438
0.64712634
0.64620163
0.645058
0.64370459
0.64215203
0.64041244
0.63846015
0.64126227
0.64105569
0.6406152
0.63995295
0.6390755
0.63799019
0.63671182
0.63525175
0.63361908
0.63178946
0.63419264
0.63399917
0.63358561
0.63296401
0.63214114
0.63112455
0.62992316
0.62854721
0.62700825
0.6252933
0.62727953
0.62709828
0.62670947
0.62612475
0.62535051
0.62439385
0.62327014
0.62198528
0.62055002
0.61897634
0.62052748
0.62035929
0.6199972
0.61945263
0.6187319
0.61784203
0.61679121
0.6155888
0.61424521
0.61277162
0.61391856
0.61376243
0.6134248
0.61291665
0.61224389
0.61141307
0.61043386
0.60931575
0.60806639
0.60669606
0.60745148
0.6073076
0.60699489
0.60652395
0.60590038
0.6051303
0.60422085
0.60318198
0.60202032
0.60074498
0.60112574
0.60099348
0.60070437
0.60026854
0.59969116
0.59897778
0.59813474
0.59717017
0.59609101
0.59490349
0.59493789
0.59481678
0.5945503
0.594148
0.59361447
0.59295448
0.59217341
0.59127722
0.59027232
0.58916543
0.58888068
0.5887695
0.58852316
0.58815083
0.58765672
0.58704513
0.58632088
0.58548928
0.58455606
0.58352575
0.5829428
0.5828419
0.58261646
0.58227491
0.58182066
0.58125696
0.58058734
0.57981556
0.57894548
0.57798099
0.57715107
0.57705836
0.57684953
0.57653269
0.57611092
0.57558707
0.57496416
0.57424538
0.57343394
0.57253305
0.57146587
0.57138102
0.57118818
0.57089512
0.57050541
0.57002519
0.56945151
0.56878588
0.56802962
0.56718385
0.56593318
0.56585626
0.56567961
0.56541024
0.56505007
0.56460047
0.56406265
0.56343766
0.5627263
0.56192914
0.56051534
0.56044445
0.56028011
0.56002904
0.55969292
0.55927282
0.55876957
0.5581838
0.55752385
0.5567797
0.55521968
0.55515626
0.55500729
0.55477875
0.55447151
0.55408561
0.55362062
0.55307574
0.55244966
0.55174068
0.55008447
0.55002538
0.54988528
0.54966995
0.54938008
0.54901547
0.54857546
0.54805891
0.5474642
0.54678926
0.54501595
0.54498569
0.54485413
0.54465152
0.54437838
0.54403717
0.54363674
0.54316338
0.54261423
0.54198596
0.54007984
0.54011481
0.53999608
0.53981238
0.5395636
0.53924859
0.5388655
0.53841192
0.5378848
0.5372806
0.53527583
0.53531812
0.53525608
0.53508111
0.53484385
0.53454302
0.53417665
0.53374216
0.53323633
0.53266486
0.53055709
0.53060033
0.53059788
0.53043687
0.53022608
0.52995737
0.52962816
0.52923523
0.52877472
0.52824233
0.52606268
0.52610732
0.52616306
0.5260142
0.52581117
0.52555214
0.52523449
0.52485498
0.5244097
0.52389434
0.52166804
0.52170998
0.52177633
0.52166628
0.52147075
0.52122104
0.52091456
0.520548
0.52011748
0.51967229
0.51735163
0.5173926
0.51746847
0.51742861
0.51726912
0.51706416
0.516811
0.51650632
0.51614638
0.5157272
0.51338514
0.51342594
0.51349162
0.51348987
0.51333575
0.51313769
0.51289309
0.51259879
0.51225118
0.51184651
0.5094948
0.50953054
0.50958638
0.50961539
0.50946647
0.50927509
0.50903878
0.50875452
0.50841885
0.50802818
0.50567302
0.50570387
0.50575024
0.50580325
0.50565938
0.50547448
0.50524622
0.50497168
0.50464758
0.50427048
0.50191725
0.50194341
0.50198064
0.50203405
0.50191252
0.50173393
0.50151348
0.50124837
0.50093548
0.5005715
0.49822547
0.49824711
0.49827553
0.49831628
0.49822436
0.49805191
0.49783902
0.49758308
0.49728105
0.49693475
0.49459528
0.49461258
0.49463255
0.49466114
0.49459687
0.49448603
0.49434756
0.49417932
0.49397899
0.4937445
0.49130652
0.49132961
0.49136328
0.49141321
0.4914075
0.49130228
0.49117107
0.491012
0.49082306
0.49060251
0.48817507
0.48819431
0.48822036
0.48825909
0.4882665
0.48816676
0.48804262
0.48789247
0.48771458
0.48750751
0.48509422
0.48510978
0.48512859
0.48515666
0.48517262
0.48507825
0.48496102
0.48481955
0.4846524
0.48445842
0.48206227
0.48207434
0.48208627
0.48210421
0.48212452
0.48203541
0.48192494
0.48179196
0.48163527
0.48145401
0.47907763
0.47908639
0.4790918
0.47910013
0.47911615
0.47903695
0.47893311
0.47880842
0.47866193
0.47849303
0.47613878
0.4761444
0.47614363
0.47614283
0.47614697
0.47608162
0.47598428
0.47586768
0.47573112
0.47563375
0.47324425
0.47324689
0.47324025
0.47323081
0.4732623
0.47326071
0.47323513
0.47320408
0.47316781
0.47312714
0.47066398
0.47067432
0.47068523
0.47070326
0.47073422
0.47074273
0.47072536
0.47070452
0.47068073
0.4706551
0.4681817
0.4681912
0.46820047
0.4682159
0.46824314
0.46825951
0.46825021
0.46823937
0.46822777
0.46821679
0.4657344
0.46574317
0.46575097
0.46576408
0.465788
0.46581017
0.46580879
0.46580774
0.46580806
0.46581137
0.46332109
0.4633292
0.46333571
0.46334678
0.46336774
0.46339381
0.46340021
0.46340877
0.46342075
0.463438
0.46094079
0.46094833
0.46095372
0.460963
0.46098134
0.46100957
0.46102361
0.4610416
0.46106498
0.46109585
0.45859258
0.45859962
0.45860404
0.45861177
0.45862784
0.45865659
0.45867816
0.4587054
0.45873994
0.45878409
0.45627554
0.45628215
0.45628576
0.45629217
0.45630625
0.45633386
0.45636298
0.4564084
0.4565288
0.4566742
0.45402768
0.45404112
0.45406024
0.45409125
0.45414012
0.45421409
0.45430741
0.45442066
0.45455765
0.45472222
0.45200849
0.45202416
0.45204771
0.45208506
0.45214182
0.4522247
0.45233019
0.45245735
0.4526106
0.45279394
0.45001412
0.45003198
0.45005992
0.45010358
0.45016818
0.45025998
0.45037731
0.45051809
0.45068727
0.45088896
0.44804401
0.44806404
0.44809635
0.44814626
0.44821867
0.44831939
0.44844824
0.44860238
0.44878716
0.4490068
0.4460976
0.44611979
0.4461564
0.44621253
0.44629272
0.44640235
0.44654245
0.4467097
0.44690978
0.447147
0.44417431
0.44419863
0.44423952
0.44430182
0.44438974
0.44450828
0.44465938
0.44483951
0.4450546
0.44530906
0.44227357
0.4423
0.44234513
0.44241354
0.44250917
0.44263659
0.44279847
0.44299126
0.44322109
0.44349245
0.44039481
0.44042333
0.44047265
0.44054714
0.44065042
0.44078671
0.44095916
0.44116437
0.44140859
0.44172285
0.43853746
0.43856805
0.43862152
0.43870201
0.43881322
0.43898204
0.43919625
0.43945367
0.43976223
0.440128
0.43678616
0.43682331
0.43689093
0.43699326
0.43713416
0.43731825
0.43755045
0.43782771
0.43815876
0.43854963
0.43509335
0.43513373
0.43520789
0.43531984
0.43547322
0.43567235
0.43592223
0.43621907
0.4365722
0.43698769
0.43341896
0.43346252
0.43354309
0.4336645
0.43383015
0.43404407
0.43431093
0.43462749
0.43500227
0.43544188
0.43176259
0.43180927
0.43189614
0.43202684
0.43220454
0.43243301
0.43271658
0.43305518
0.43347894
0.43397909
0.43013077
0.43018256
0.43028026
0.43042759
0.43062808
0.43088604
0.43120659
0.43158954
0.43204285
0.43257563
0.4285743
0.42862991
0.42873537
0.42889422
0.42910988
0.42938646
0.42972888
0.43013801
0.43062034
0.43118516
0.42703397
0.42709333
0.42720638
0.42737654
0.42760707
0.42790194
0.42826586
0.42870055
0.42921135
0.42980763
0.42550948
0.42557252
0.42569302
0.42587427
0.42611941
0.42643224
0.42681728
0.42727695
0.42781566
0.42844268
0.42400049
0.42406714
0.42419495
0.42438708
0.42464655
0.42497699
0.4253827
0.42588877
0.42648699
0.42718757
0.42252369
0.42259607
0.42273607
0.42294714
0.42323297
0.42359814
0.42404822
0.42458852
0.42522433
0.42596628
0.42110406
0.42118113
0.42133064
0.42155591
0.42186055
0.42224901
0.42272672
0.42329938
0.42397209
0.42475469
0.41969826
0.41977993
0.41993876
0.42017797
0.42050106
0.42091237
0.42141718
0.42202144
0.42273037
0.42355289
0.41830608
0.41839226
0.41856024
0.41881311
0.4191543
0.41958804
0.42011946
0.42075455
0.421499
0.42236056
0.4169272
0.41701781
0.41719476
0.41746104
0.41781998
0.41827569
0.41883314
0.41951721
0.42033486
0.42128709
0.41557488
0.41567225
0.41586363
0.41615251
0.41654321
0.41704119
0.41765313
0.41838688
0.41925196
0.42025652
0.41428699
0.41439034
0.41459383
0.4149008
0.41531546
0.41584314
0.41649036
0.41726477
0.4181763
0.41923228
0.41301083
0.41312004
0.4133354
0.4136601
0.41409825
0.41465507
0.4153369
0.41615122
0.41710821
0.41821472
0.41174626
0.41186121
0.41208821
0.41243032
0.41289154
0.41347696
0.41419277
0.41504626
0.41604776
0.41720385
0.41049305
0.41061364
0.41085207
0.41121125
0.41169511
0.41230858
0.4130577
0.41394949
0.41501297
0.41628088
0.40925088
0.40937701
0.40962663
0.41000873
0.41053158
0.41119714
0.41201352
0.41299019
0.41414002
0.41547303
0.40809934
0.4082358
0.4085073
0.40891724
0.40947066
0.41017399
0.41103509
0.4120631
0.41327044
0.41466752
0.40697105
0.40711501
0.4074017
0.40783429
0.40841766
0.40915805
0.41006304
0.41114147
0.41240518
0.41386523
0.40585229
0.40600362
0.4063052
0.40676001
0.40737278
0.40814954
0.40909761
0.41022556
0.41154455
0.41306651
0.40474294
0.40490151
0.40521771
0.40569436
0.40633602
0.40714852
0.40813895
0.40931555
0.41068871
0.41227112
0.40364272
0.4038084
0.40413897
0.40463707
0.40530708
0.40615463
0.40718641
0.40845878
0.40996208
0.41170127
0.40258837
0.40276714
0.40312568
0.40366715
0.40439723
0.40532318
0.40645374
0.40779895
0.40936996
0.41118358
0.40167918
0.40186724
0.4022445
0.4028138
0.40358051
0.40455154
0.40573518
0.40714095
0.40877935
0.41066604
0.40077711
0.40097411
0.4013694
0.40196553
0.40276762
0.40378221
0.40501715
0.40648148
0.40818516
0.41014268
0.39988243
0.40008831
0.4005015
0.40112429
0.40196153
0.40301942
0.40430541
0.40582805
0.40759675
0.40962495
0.39899469
0.39920928
0.39964005
0.40028901
0.40116077
0.40226119
0.40359734
0.40517726
0.40700977
0.40910678
0.39811374
0.39833693
0.39878503
0.39945979
0.40036554
0.40150782
0.40289444
0.40460728
0.40659485
0.40886624
0.39730458
0.39754499
0.39802973
0.39876056
0.39974246
0.40098174
0.40248561
0.40426201
0.40631911
0.40866257
0.39669096
0.39694152
0.39744665
0.39820763
0.39922892
0.40051618
0.40207591
0.40391509
0.40604082
0.40845592
0.39608118
0.39634166
0.3968668
0.39765738
0.39871737
0.40005178
0.40166616
0.4036172
0.40589801
0.40847969
0.3955236
0.3958038
0.39637068
0.39722384
0.39836652
0.39980274
0.40153687
0.40357331
0.40591606
0.40856327
0.39523173
0.39552128
0.3961071
0.39698817
0.39816716
0.39964738
0.40143237
0.40352557
0.40592981
0.40864331
0.39494104
0.39523979
0.39584424
0.39675281
0.39796759
0.39949119
0.40132629
0.40347491
0.40602561
0.40889989
0.39465159
0.39496015
0.39560798
0.39658101
0.39787991
0.39950541
0.40145781
0.40373653
0.40633998
0.40926543
0.39470413
0.3950321
0.3956955
0.39669137
0.39801978
0.39968063
0.40170131
0.40408783
0.40680365
0.40984296
0.39486933
0.39521524
0.39591375
0.39696119
0.39835573
0.40009502
0.40217577
0.40459358
0.40734502
0.41049991
0.39522954
0.39558227
0.39629182
0.3973554
0.39878924
0.40061073
0.4027825
0.40529651
0.40814297
0.41131163
0.39583348
0.39620258
0.39694403
0.39805402
0.39952814
0.40136088
0.40354525
0.40608747
0.40903129
0.41229352
0.39654912
0.39693431
0.39770868
0.39886567
0.40039908
0.40230041
0.40455933
0.40716373
0.41010002
0.41335346
0.3976405
0.39802503
0.39879839
0.39995285
0.40148286
0.40337983
0.40566642
0.40834477
0.41135315
0.41467395
0.39885651
0.39925238
0.40005097
0.40124105
0.40281543
0.40476287
0.40707005
0.40972187
0.41270112
0.41606425
0.40033453
0.40072582
0.40151641
0.40269406
0.40425212
0.40623488
0.40859018
0.41129022
0.41431522
0.41764531
0.40204051
0.40243805
0.40324448
0.40444484
0.40603083
0.40798953
0.4103057
0.41296185
0.41599376
0.41935702
0.40388617
0.40427579
0.4050679
0.40627558
0.40788397
0.40986771
0.41220963
0.41489036
0.41788891
0.42118394
0.40603114
0.40642287
0.40722224
0.40841275
0.40998472
0.41192425
0.41421487
0.41687332
0.41988499
0.42318907
0.40823834
0.40863064
0.4094338
0.41063071
0.41221023
0.41415744
0.41645479
0.41908254
0.42201932
0.42524266
0.41072088
0.41110151
0.41188206
0.41304674
0.41458416
0.41648006
0.41874443
0.42139878
0.42436139
0.42760856
0.41330247
0.41368492
0.41447184
0.41564719
0.41719812
0.41910948
0.42136349
0.42394008
0.42681733
0.42997266
0.41614723
0.41651764
0.41728028
0.41841978
0.41992376
0.42177785
0.42396512
0.42646644
0.42926083
0.43232666
0.41896912
0.41932784
0.42006692
0.42117167
0.42263015
0.42442863
0.42655094
0.42897877
0.43169138
0.43477345
0.42176899
0.42211637
0.42283251
0.42390344
0.4253174
0.42712619
0.42926858
0.43171801
0.43445314
0.43745194
0.42478987
0.42513886
0.42586034
0.42693965
0.42836458
0.43012149
0.43219432
0.43456468
0.43721224
0.44011585
0.42793987
0.42827693
0.42897426
0.43001775
0.43139566
0.43309492
0.43510007
0.43739349
0.43995565
0.44276612
0.43106462
0.43139008
0.43206398
0.4330726
0.43440471
0.43604771
0.43798676
0.44020466
0.44272548
0.4455305
0.43416482
0.43447897
0.43513
0.43611255
0.43743892
0.43907552
0.44100781
0.44321904
0.44569056
0.44840281
0.43744977