/*--------------------------------*- C++ -*----------------------------------*\
  =========                 |
  \\      /  F ield         | OpenFOAM: The Open Source CFD Toolbox
   \\    /   O peration     | Website:  https://openfoam.org
    \\  /    A nd           | Version:  7
     \\/     M anipulation  |
\*---------------------------------------------------------------------------*/
FoamFile
{
    version     2.0;
    format      ascii;
    class       volScalarField;
    location    "80000";
    object      alpha_lam;
}
// * * * * * * * * * * * * * * * * * * * * * * * * * * * * * * * * * * * * * //

dimensions      [0 2 -1 0 0 0 0];

internalField   nonuniform List<scalar> 
87000
(
6.4556518e-05
6.4556651e-05
6.4556992e-05
6.4557707e-05
6.4559256e-05
6.4563129e-05
6.4575722e-05
6.4632909e-05
6.5268543e-05
7.9390507e-05
6.4562362e-05
6.4563027e-05
6.4565561e-05
6.4570973e-05
6.4582884e-05
6.4611954e-05
6.469145e-05
6.5031918e-05
6.7023656e-05
8.6628199e-05
6.457736e-05
6.4579673e-05
6.4587942e-05
6.4605413e-05
6.4642204e-05
6.4722435e-05
6.4935703e-05
6.5814699e-05
6.9587139e-05
9.2646224e-05
6.4607169e-05
6.4613425e-05
6.4632845e-05
6.467194e-05
6.4747695e-05
6.4921204e-05
6.5422303e-05
6.6994909e-05
7.2677304e-05
9.7672294e-05
6.4658042e-05
6.4671849e-05
6.4707914e-05
6.4775264e-05
6.4919243e-05
6.5239157e-05
6.6114934e-05
6.8241224e-05
7.5965549e-05
0.0001014836
6.4737352e-05
6.4761318e-05
6.4817414e-05
6.4932277e-05
6.5152924e-05
6.5722555e-05
6.7024296e-05
6.9966926e-05
7.9205358e-05
0.00010430234
6.4852769e-05
6.4886646e-05
6.4969425e-05
6.5142129e-05
6.5509188e-05
6.6332425e-05
6.8108694e-05
7.1876109e-05
8.2271074e-05
0.00010648835
6.5008588e-05
6.5048822e-05
6.517277e-05
6.539896e-05
6.5976611e-05
6.7071808e-05
6.9331475e-05
7.3897623e-05
8.5126221e-05
0.0001083097
6.5209029e-05
6.5262022e-05
6.5423835e-05
6.57746e-05
6.6531672e-05
6.7948408e-05
7.0286762e-05
7.5961398e-05
8.7758309e-05
0.00010989465
6.5456103e-05
6.5527388e-05
6.5717793e-05
6.6247721e-05
6.7183115e-05
6.8929211e-05
7.1696671e-05
7.8024491e-05
9.017221e-05
0.00011126593
6.5749388e-05
6.5842939e-05
6.6097236e-05
6.6784121e-05
6.7925119e-05
6.9975603e-05
7.3182271e-05
8.0063218e-05
9.2403154e-05
0.00011250808
6.6110634e-05
6.6208631e-05
6.6597877e-05
6.7398273e-05
6.8764973e-05
7.1115876e-05
7.4724253e-05
8.2060024e-05
9.4477033e-05
0.0001136674
6.6536794e-05
6.661923e-05
6.7163397e-05
6.8092887e-05
6.969418e-05
7.2322017e-05
7.6308987e-05
8.4019309e-05
9.642888e-05
0.0001148
6.7023489e-05
6.7076842e-05
6.7792751e-05
6.8864362e-05
7.0693515e-05
7.3014343e-05
7.791558e-05
8.5925674e-05
9.8268928e-05
0.00011588594
6.756606e-05
6.7687172e-05
6.8487646e-05
6.9709781e-05
7.1740912e-05
7.4303399e-05
7.9532598e-05
8.776944e-05
0.00010000174
0.00011691782
6.8163817e-05
6.8389966e-05
6.9260604e-05
7.0639349e-05
7.2849287e-05
7.564081e-05
8.1162473e-05
8.9567607e-05
0.00010165094
0.0001179153
6.8818362e-05
6.9184666e-05
7.0103696e-05
7.164262e-05
7.4030149e-05
7.7020823e-05
8.2791521e-05
9.1320627e-05
0.00010324896
0.00011888789
6.9527659e-05
7.0008445e-05
7.1022967e-05
7.2717937e-05
7.5264713e-05
7.8439448e-05
8.4423857e-05
9.3034103e-05
0.00010478271
0.0001198516
7.0299698e-05
7.091382e-05
7.2008907e-05
7.3854507e-05
7.6549678e-05
7.9893393e-05
8.6058811e-05
9.4714313e-05
0.00010626223
0.00012082616
7.1131229e-05
7.1880861e-05
7.305929e-05
7.5033747e-05
7.7881849e-05
8.1383921e-05
8.769508e-05
9.6373178e-05
0.00010770858
0.00012180292
7.2023902e-05
7.2921818e-05
7.4196539e-05
7.6275776e-05
7.8322846e-05
8.2893438e-05
8.9332221e-05
9.8004473e-05
0.00010914515
0.00012277379
7.2971791e-05
7.4040933e-05
7.5406664e-05
7.7572506e-05
7.9702785e-05
8.4421237e-05
9.0957101e-05
9.960251e-05
0.00011053433
0.00012372739
7.4101313e-05
7.5239372e-05
7.6687881e-05
7.8930031e-05
8.1127378e-05
8.5973724e-05
9.2578042e-05
0.00010117702
0.00011188972
0.00012467409
7.5328477e-05
7.6509519e-05
7.8038861e-05
8.0354144e-05
8.2587399e-05
8.7541724e-05
9.4197382e-05
0.0001027434
0.00011322097
0.0001256194
7.6641814e-05
7.7855164e-05
7.9459165e-05
8.1836426e-05
8.4089556e-05
8.9134011e-05
9.5816435e-05
0.00010429217
0.00011455756
0.00012658667
7.8041482e-05
7.9276595e-05
8.0948047e-05
8.336708e-05
8.5628289e-05
9.07454e-05
9.7438254e-05
0.00010582022
0.00011588147
0.00012756108
7.9526535e-05
8.0773219e-05
8.2509377e-05
8.4957064e-05
8.7201178e-05
9.2375487e-05
9.9062103e-05
0.00010733048
0.00011719136
0.00012853938
8.1095839e-05
8.2348371e-05
8.4128167e-05
8.6593431e-05
8.8809195e-05
9.402412e-05
0.00010068931
0.00010885978
0.00011848982
0.00012952331
8.2748981e-05
8.3989638e-05
8.5810565e-05
8.8289994e-05
9.0453082e-05
9.5690815e-05
0.00010232781
0.00011037913
0.00011978686
0.00013051358
8.4485126e-05
8.571109e-05
8.7539371e-05
9.0032232e-05
9.2129651e-05
9.7376121e-05
0.00010397295
0.00011188869
0.00012110068
0.00013151044
8.6309558e-05
8.7486549e-05
8.9332452e-05
9.1829029e-05
9.3837439e-05
9.9079569e-05
0.00010561367
0.00011339197
0.00012241193
0.00013252343
8.8187036e-05
8.9335203e-05
9.1184259e-05
9.3676299e-05
9.5575785e-05
0.00010080055
0.00010725239
0.00011492266
0.00012372166
0.00013355987
9.0116435e-05
9.1245582e-05
9.3098075e-05
9.5575621e-05
9.7345025e-05
0.00010254909
0.00010892678
0.00011644813
0.00012503034
0.00013460708
9.2111553e-05
9.3219908e-05
9.5071172e-05
9.7524462e-05
9.9143767e-05
0.00010431352
0.00011060068
0.00011796967
0.00012635678
0.00013566921
9.4138523e-05
9.5253396e-05
9.7100606e-05
9.9521351e-05
0.00010096979
0.00010608376
0.00011227438
0.00011949425
0.00012769997
0.00013675154
9.6188045e-05
9.7341388e-05
9.9185703e-05
0.00010156698
0.00010283426
0.00010787431
0.00011396643
0.00012105217
0.00012904635
0.00013784598
9.8295102e-05
9.948303e-05
0.00010132612
0.00010365971
0.00010471835
0.00010969661
0.00011568058
0.00012260982
0.00013039715
0.00013895815
0.00010048416
0.00010167988
0.00010351853
0.00010580917
0.00010661455
0.00011152469
0.00011739735
0.00012416827
0.00013175401
0.00014009183
0.00010275421
0.00010392998
0.00010576798
0.00010799713
0.00010855156
0.00011336382
0.00011911655
0.00012573562
0.00013314023
0.00014124152
0.00010507799
0.00010624546
0.00010807695
0.00011021216
0.00011051141
0.00011524471
0.00012087605
0.00012733738
0.00013453551
0.00014241332
0.00010745368
0.00010862223
0.00011041655
0.00011249121
0.00011248007
0.00011713042
0.00012264039
0.00012894361
0.0001359476
0.00014360454
0.00010985437
0.00011102781
0.00011280819
0.000114805
0.00011448826
0.00011902
0.0001244076
0.00013055354
0.0001373738
0.00014480884
0.00011228275
0.00011349139
0.00011524858
0.00011714026
0.00011651619
0.00012095436
0.00012619656
0.00013217359
0.00013881475
0.00014603516
0.00011476453
0.00011600036
0.0001176737
0.00011954477
0.00011854818
0.00012289307
0.00012800889
0.00013381733
0.00014027323
0.00014727983
0.00011725441
0.00011850454
0.00012014999
0.00012196994
0.00012061395
0.00012482042
0.00012980797
0.00013545633
0.00014172694
0.00014853272
0.00011977293
0.00012105644
0.00012264175
0.00012438742
0.00012704188
0.00012680539
0.00013161896
0.00013712083
0.00014320856
0.00014981167
0.00012231833
0.00012361675
0.00012514073
0.00012687181
0.00012943194
0.00012881255
0.00013348502
0.00013881687
0.00014471611
0.00015111966
0.00012486991
0.00012619985
0.00012770319
0.0001294217
0.00013188436
0.0001308171
0.00013535964
0.00014053283
0.00014625077
0.00015245424
0.00012747793
0.00012882712
0.00013027029
0.00013201572
0.00013435998
0.00013284124
0.00013725006
0.00014226165
0.00014780258
0.00015381151
0.00013008524
0.00013145501
0.00013285532
0.00013465835
0.00013684392
0.00013487629
0.00013915094
0.00014400433
0.00014937238
0.00015518053
0.00013268041
0.00013411803
0.000135476
0.00013730913
0.00013937014
0.00013692761
0.00014104904
0.0001457434
0.00015093784
0.00015656186
0.00013516643
0.00013678751
0.00013808154
0.00013998518
0.00014187528
0.00014461782
0.00014299106
0.00014751062
0.00015252981
0.00015796521
0.00013763921
0.00013944492
0.00014070281
0.00014266475
0.0001444055
0.00014707617
0.00014494162
0.00014931287
0.00015415538
0.00015940365
0.00014013794
0.00014213772
0.00014334172
0.00014536883
0.00014697135
0.0001495718
0.0001469018
0.000151118
0.00015579137
0.00016086156
0.00014263175
0.00014482607
0.0001459937
0.00014799199
0.00014960174
0.00015208096
0.00014886765
0.00015292657
0.00015742826
0.00016232155
0.00014510018
0.00014750351
0.00014865274
0.00015057598
0.0001523025
0.00015456254
0.00015745681
0.00015476427
0.00015909182
0.00016380959
0.00014756403
0.0001501796
0.00015137773
0.00015316484
0.0001549938
0.00015707274
0.00015989025
0.00015661316
0.00016077183
0.00016530781
0.00015002127
0.00015286385
0.00015410987
0.00015575538
0.00015770236
0.00015959528
0.00016228899
0.00016542113
0.00016249341
0.00016684431
0.00015246985
0.0001555395
0.000156848
0.00015835365
0.00016040251
0.00016212224
0.00016471907
0.00016776629
0.00016422151
0.00016839911
0.0001549176
0.00015822252
0.00015954149
0.00016094845
0.00016311466
0.00016478294
0.00016717561
0.00017012558
0.00016594272
0.00016996106
0.00015735398
0.00016089946
0.00016219722
0.00016354999
0.00016565273
0.00016745598
0.00016963839
0.00017246599
0.00017569433
0.00017155378
0.00015976731
0.00016357399
0.00016484894
0.00016613638
0.00016816149
0.00017012203
0.00017209476
0.00017482152
0.00017789391
0.00018134563
0.00016215772
0.0001662231
0.00016749032
0.00016871978
0.00017066405
0.00017278103
0.00017466037
0.00017717865
0.00018014767
0.00018345479
0.00016453433
0.0001687428
0.00017012625
0.00017133868
0.00017316279
0.00017543313
0.00017726191
0.00017952928
0.00018239611
0.00018557713
0.00016688432
0.0001712515
0.00017274904
0.00017402344
0.00017565712
0.00017785828
0.00017984547
0.0001819361
0.000184655
0.00018772325
0.0001692068
0.00017374472
0.00017534109
0.00017668659
0.00017813155
0.00018023856
0.00018242547
0.00018445121
0.00018688763
0.00018985487
0.00017149678
0.00017620732
0.00017787394
0.00017924724
0.00018058103
0.00018260234
0.00018496642
0.00018694266
0.00018919782
0.00019195386
0.0001737724
0.0001786628
0.00018039348
0.00018174708
0.00018302238
0.00018494315
0.00018721781
0.00018939977
0.00019158012
0.00019404221
0.00017602521
0.00018104681
0.00018289659
0.00018423972
0.00018554253
0.00018728687
0.00018944796
0.00019184087
0.00019394585
0.00019630041
0.00017827241
0.00018290477
0.00018537434
0.00018671237
0.00018809685
0.00018960889
0.00019168849
0.00019404927
0.00019629233
0.00019857431
0.00018053075
0.00018478914
0.00018785304
0.00018916914
0.00019059024
0.00019193602
0.00019391303
0.00019618247
0.00019862733
0.00020082529
0.00018298631
0.0001866856
0.00019027102
0.00019159683
0.00019297377
0.00019427626
0.00019614702
0.00019830791
0.00020073041
0.00020307563
0.00018543229
0.00018861056
0.00019253166
0.00019396751
0.000195348
0.00019674057
0.00019836636
0.00020044551
0.00020275436
0.00020529671
0.00018784649
0.00019053983
0.00019479225
0.00019634714
0.00019771017
0.00019918434
0.00020059417
0.00020257026
0.00020479394
0.00020721686
0.00019024878
0.00019248565
0.00019704488
0.00019870525
0.00020007094
0.00020152041
0.00020285693
0.00020471048
0.00020682162
0.00020914989
0.0001926299
0.00019444463
0.00019930706
0.00020106573
0.00020241432
0.00020380193
0.00020524198
0.00020683359
0.00020886317
0.00021109197
0.00019499184
0.00019640905
0.00020155306
0.00020341203
0.00020470407
0.00020608107
0.0002076012
0.00020896631
0.00021090761
0.00021304121
0.00019734456
0.00019838961
0.0002032428
0.00020568694
0.00020697056
0.00020834903
0.00020983284
0.00021125917
0.00021295546
0.00021499662
0.0001996718
0.00020035905
0.00020481612
0.00020780182
0.00020923942
0.00021061749
0.00021203256
0.00021355963
0.00021500621
0.000216958
0.00020198869
0.0002023434
0.00020643416
0.00020992809
0.00021150576
0.00021285106
0.00021423036
0.00021578015
0.00021722446
0.00021892596
0.0002042929
0.0002043627
0.00020809009
0.00021206084
0.00021376921
0.0002150443
0.00021642843
0.00021790697
0.0002194566
0.00022093037
0.00020658488
0.00020667586
0.00020978402
0.00021420044
0.00021602983
0.00021723888
0.00021862639
0.00022003651
0.00022161363
0.00022310477
0.00020886613
0.00020897392
0.00021151297
0.00021615422
0.00021805117
0.00021943567
0.00022078024
0.00022216986
0.00022367516
0.00022527663
0.00021113789
0.00021125876
0.00021326883
0.00021751759
0.00022008744
0.0002216353
0.00022291161
0.00022430771
0.0002257468
0.0002273362
0.00021340109
0.00021353188
0.00021505433
0.00021894537
0.00022214051
0.00022383863
0.00022505052
0.00022643312
0.00022782698
0.0002293448
0.0002156573
0.00021579533
0.0002168756
0.00022044038
0.00022421101
0.00022589211
0.00022719808
0.00022851039
0.00022991716
0.00023136652
0.0002179088
0.00021805182
0.00021873346
0.00022199999
0.00022626369
0.00022786859
0.00022935591
0.00023060453
0.00023200667
0.00023340508
0.00022015811
0.00022030424
0.0002206272
0.00022361495
0.00022752457
0.0002298716
0.00023152553
0.00023271412
0.00023404736
0.00023546219
0.00022240724
0.00022255482
0.00022287825
0.00022528617
0.00022887436
0.00023190337
0.00023351071
0.0002348405
0.00023610861
0.00023751411
0.00022466039
0.00022480728
0.00022512965
0.00022701813
0.00023031462
0.00023396452
0.00023547093
0.00023698631
0.00023819559
0.00023953645
0.00022692011
0.00022706631
0.00022738461
0.00022881292
0.00023183983
0.00023554492
0.00023746888
0.00023908053
0.00024030928
0.00024158789
0.0002291899
0.00022933469
0.00022964744
0.00023066791
0.00023344636
0.00023686256
0.00023950885
0.00024102601
0.00024245103
0.00024367103
0.00023147382
0.00023161663
0.00023192414
0.00023258465
0.00023513838
0.00023829353
0.00024159179
0.00024302127
0.00024461947
0.00024579365
0.00023377648
0.00023391687
0.00023421838
0.00023467669
0.00023692121
0.00023983543
0.00024325971
0.00024506895
0.00024658171
0.00024795519
0.00023610331
0.00023624101
0.00023653619
0.00023698435
0.00023879242
0.00024148366
0.00024466193
0.00024717377
0.00024860675
0.00025015998
0.00023846021
0.00023859504
0.00023888359
0.00023932126
0.00024075403
0.00024324495
0.00024620253
0.00024933936
0.00025069796
0.00025220267
0.00024085411
0.00024098605
0.00024126802
0.00024169538
0.00024281461
0.00024512516
0.00024787807
0.00025103226
0.00025286172
0.00025429563
0.00024329262
0.00024342168
0.00024369716
0.00024411443
0.00024497583
0.00024712444
0.00024969044
0.00025264505
0.00025510324
0.00025647159
0.00024578434
0.00024591064
0.00024617992
0.00024658766
0.00024724517
0.00024924977
0.00025164844
0.00025442449
0.00025742883
0.0002587371
0.00024833949
0.00024846317
0.00024872673
0.00024912568
0.00024966066
0.00025151185
0.00025376138
0.00025637215
0.00025931489
0.00026110241
0.00025096947
0.00025109079
0.00025134918
0.00025174028
0.00025226461
0.00025391636
0.00025603294
0.00025849419
0.0002612811
0.00026357488
0.00025368682
0.00025380606
0.00025405988
0.00025444401
0.00025495894
0.00025647267
0.00025847299
0.00026080309
0.00026345305
0.00026616524
0.00025650651
0.00025662401
0.00025687399
0.0002572523
0.00025775944
0.00025919825
0.00026109802
0.00026331358
0.00026583978
0.00026865379
0.00025944501
0.00025956113
0.00025980806
0.00026018177
0.00026068279
0.00026210757
0.00026392094
0.00026603655
0.00026845191
0.00027115164
0.00026252091
0.00026263604
0.00026288075
0.00026325113
0.00026377461
0.00026521901
0.00026695857
0.00026898762
0.00027130689
0.00027390748
0.00026575474
0.00026586928
0.00026611264
0.00026648103
0.00026716229
0.00026855588
0.00027023044
0.00027218548
0.00027442256
0.00027693736
0.00026916934
0.00026928372
0.00026952664
0.00026989563
0.00027079029
0.00027213818
0.00027375769
0.00027565003
0.00027781742
0.00028025957
0.00027279249
0.00027290799
0.00027315331
0.00027363526
0.0002746805
0.00027598943
0.00027756273
0.00027940244
0.00028151131
0.00028389698
0.00027665453
0.0002767708
0.00027707536
0.00027783806
0.00027885733
0.00028013353
0.00028166831
0.00028346453
0.00028553228
0.00028786462
0.00028086609
0.00028110555
0.00028160103
0.00028234741
0.00028334449
0.0002845934
0.00028610151
0.00028786751
0.00028989429
0.00029218018
0.00028573192
0.00028596736
0.0002864555
0.00028719075
0.00028817333
0.00028940447
0.00029088629
0.00029262153
0.00029461355
0.00029686155
0.00029096008
0.00029119188
0.00029167197
0.00029239535
0.00029336227
0.00029457419
0.00029603303
0.00029774464
0.00029971464
0.00030193265
0.0002965517
0.00029677996
0.00029725307
0.00029796793
0.00029892532
0.00030012525
0.00030156972
0.00030326144
0.00030520299
0.00030727219
0.00030253641
0.00030276235
0.00030323093
0.00030393717
0.00030488129
0.00030606453
0.0003074888
0.0003091619
0.00031108207
0.00031273095
0.00030890269
0.00030912621
0.00030959011
0.00031028932
0.00031122397
0.00031239519
0.00031380488
0.00031545503
0.00031734169
0.00031856377
0.00031565625
0.00031587594
0.00031633208
0.00031701972
0.00031793972
0.00031909694
0.00032048902
0.00032211673
0.00032376869
0.00032479635
0.00032278589
0.00032300273
0.00032345325
0.00032413223
0.00032503946
0.00032617553
0.00032754145
0.0003291361
0.00033041231
0.00033144157
0.0003302151
0.00033042755
0.0003308692
0.00033153471
0.00033242368
0.00033353641
0.00033487385
0.00033643284
0.00033743629
0.00033846993
0.00033791188
0.00033811881
0.00033854924
0.0003391979
0.00034006405
0.00034114762
0.00034244859
0.00034391298
0.00034483337
0.00034586805
0.00034580867
0.00034600888
0.00034642548
0.00034705306
0.00034789074
0.00034893815
0.00035019498
0.00035165331
0.00035257083
0.00035360209
0.00035382453
0.00035401671
0.00035441682
0.00035501948
0.00035582364
0.00035682864
0.00035803403
0.00035943778
0.00036059889
0.00036162087
0.00036187013
0.00036205257
0.00036243256
0.00036300484
0.00036376836
0.00036472249
0.00036586614
0.00036719835
0.00036871721
0.00036982251
0.00036987136
0.00037004403
0.000370404
0.00037094615
0.00037166925
0.00037257239
0.00037365458
0.00037491473
0.00037635159
0.00037796365
0.00037775611
0.00037791736
0.00037825365
0.00037876447
0.0003794458
0.0003802967
0.00038131618
0.00038250315
0.00038385637
0.00038537445
0.00038547351
0.00038562476
0.00038594048
0.0003864161
0.00038705055
0.00038784804
0.00038880647
0.0003899225
0.00039119501
0.00039262281
0.00039298854
0.00039313036
0.00039342676
0.00039387344
0.00039446942
0.00039521398
0.00039610641
0.00039714977
0.00039834742
0.00039969178
0.00040028614
0.00040041946
0.0004006985
0.00040111919
0.00040168069
0.00040238244
0.00040322391
0.00040420452
0.00040532366
0.00040658066
0.00040736593
0.00040749048
0.00040775296
0.00040815131
0.00040868319
0.00040934817
0.00041014592
0.00041107606
0.00041213824
0.00041333208
0.00041429653
0.00041439831
0.00041462821
0.00041500423
0.00041550641
0.00041613441
0.00041688874
0.00041776853
0.00041877359
0.00041991347
0.00042143324
0.00042153147
0.00042173973
0.00042205453
0.0004224754
0.00042300229
0.00042363524
0.00042437443
0.00042529261
0.00042637634
0.00042836799
0.00042846231
0.00042866239
0.0004289649
0.00042936944
0.00042987602
0.00043048481
0.00043119608
0.0004320101
0.00043292725
0.00043508317
0.00043517409
0.00043536726
0.00043565969
0.00043605082
0.00043654069
0.0004371295
0.00043781843
0.00043861842
0.00043952013
0.0004416045
0.00044169276
0.00044188029
0.00044216391
0.00044254848
0.00044303144
0.00044361205
0.00044429152
0.0004450703
0.00044594834
0.00044796308
0.0004480506
0.00044823679
0.00044851845
0.00044889529
0.00044936739
0.00044993503
0.00045059859
0.00045135853
0.00045221551
0.000454161
0.00045424688
0.00045442971
0.00045470633
0.00045507644
0.00045554017
0.00045609779
0.0004567497
0.0004574964
0.00045833855
0.00046020363
0.00046028798
0.00046046773
0.00046073973
0.00046110369
0.00046155973
0.00046210959
0.00046275287
0.00046348972
0.00046432082
0.00046609711
0.00046618053
0.00046635842
0.00046662764
0.00046698791
0.00046743933
0.0004679822
0.00046861693
0.00046934412
0.00047016747
0.00047184517
0.00047192797
0.00047210468
0.00047237212
0.00047273002
0.00047317848
0.00047371779
0.00047434836
0.00047507067
0.0004758854
0.00047745056
0.00047753265
0.00047770873
0.00047797527
0.00047833195
0.0004787789
0.00047931639
0.00047994481
0.00048066465
0.00048147656
0.00048294936
0.00048302973
0.0004832014
0.00048346124
0.00048380895
0.00048424461
0.0004847776
0.00048540572
0.00048612517
0.00048693662
0.00048832248
0.00048840285
0.00048857462
0.00048883464
0.00048918259
0.00048961854
0.00049014274
0.0004907555
0.0004914609
0.00049226309
0.00049356423
0.00049364481
0.00049381713
0.00049407799
0.00049442707
0.00049486443
0.00049539031
0.00049600502
0.00049670897
0.00049750435
0.00049867045
0.00049875143
0.0004989247
0.00049918702
0.00049953804
0.00049997784
0.00050050662
0.00050112471
0.00050183248
0.00050263052
0.00050368149
0.00050376135
0.00050393218
0.00050419078
0.00050453681
0.00050497029
0.00050549143
0.00050610819
0.00050682139
0.00050762553
0.00050856422
0.00050864788
0.00050882652
0.00050909685
0.0005094521
0.00050988962
0.0005104156
0.0005110303
0.00051173406
0.00051252739
0.00051330675
0.00051339124
0.00051357173
0.00051384487
0.00051421029
0.00051466801
0.00051520377
0.0005158254
0.00051653708
0.00051733931
0.00051798737
0.00051807098
0.00051824953
0.00051851973
0.00051888118
0.00051933386
0.00051987791
0.00052050159
0.00052120528
0.00052200809
0.00052255448
0.00052263916
0.00052282009
0.0005230939
0.00052346018
0.00052391893
0.00052447027
0.00052511441
0.00052583746
0.00052664179
0.00052702383
0.00052710776
0.00052728703
0.00052755832
0.00052792119
0.00052837561
0.00052892167
0.00052956742
0.00053031598
0.0005311387
0.00053142703
0.00053151227
0.00053169444
0.00053197018
0.00053233905
0.00053280102
0.0005333562
0.00053400478
0.00053474699
0.00053558056
0.00053549398
0.00053564047
0.0005359461
0.00053625462
0.00053662065
0.00053707903
0.00053763277
0.00053829332
0.00053904932
0.00053990123
0.00053939764
0.00053954737
0.00053985964
0.00054033047
0.00054088368
0.00054135117
0.0005419129
0.00054256906
0.00054331985
0.00054416568
0.00054319845
0.00054334896
0.00054366268
0.00054413551
0.00054476679
0.000545478
0.00054603627
0.00054669426
0.00054746122
0.00054832524
0.00054697475
0.00054712622
0.00054744551
0.00054792646
0.00054856812
0.00054936954
0.00055016958
0.0005508362
0.00055159857
0.00055245717
0.00055072701
0.00055087027
0.00055116907
0.00055164103
0.00055228114
0.00055308062
0.00055403787
0.0005548327
0.0005555907
0.00055645075
0.00055440305
0.00055454836
0.00055485146
0.00055530693
0.00055594153
0.00055674802
0.00055771311
0.00055879325
0.00055956362
0.00056043033
0.00055807228
0.00055821864
0.00055852398
0.00055898269
0.00055959206
0.00056039671
0.00056136274
0.0005624836
0.00056347907
0.0005643533
0.00056172107
0.00056186664
0.00056217024
0.00056262625
0.00056323444
0.00056401169
0.00056497678
0.00056609613
0.00056733473
0.00056821603
0.00056535483
0.00056550103
0.00056580603
0.00056626404
0.00056687212
0.00056762689
0.00056856828
0.00056967338
0.00057093595
0.00057201858
0.00056895977
0.00056910648
0.00056941269
0.00056987242
0.00057048258
0.00057123955
0.00057215645
0.00057325057
0.00057448981
0.00057576416
0.00057253354
0.00057268068
0.00057298792
0.00057344913
0.00057406102
0.0005748198
0.00057572079
0.00057680305
0.0005780293
0.00057939121
0.00057610391
0.00057624943
0.00057655327
0.00057700932
0.00057761427
0.00057836447
0.00057926635
0.00058032586
0.00058153665
0.00058288023
0.00057966177
0.00057980725
0.00058011116
0.00058056724
0.00058117201
0.00058192144
0.00058281056
0.00058384014
0.00058501862
0.00058633349
0.0005831833
0.00058332854
0.00058363214
0.00058408762
0.00058469132
0.00058543891
0.00058632517
0.00058734379
0.00058850107
0.00058978475
0.00058670057
0.00058684333
0.00058714184
0.0005875897
0.00058818325
0.00058891822
0.00058979534
0.00059080764
0.000591943
0.00059320032
0.00059020247
0.00059034415
0.00059064062
0.00059108527
0.00059167422
0.00059240291
0.00059326581
0.00059425628
0.00059536132
0.00059657818
0.00059365962
0.00059380001
0.00059409399
0.00059453471
0.00059511798
0.00059583885
0.00059669138
0.00059766849
0.00059875724
0.0005999458
0.0005971367
0.00059727312
0.00059755902
0.00059798769
0.00059855507
0.00059925637
0.00060008582
0.0006010366
0.00060210201
0.00060326218
0.00060056734
0.00060070138
0.00060098259
0.00060140403
0.00060196128
0.00060264919
0.00060346154
0.00060439106
0.00060542931
0.00060655475
0.00060399317
0.00060412235
0.0006043937
0.00060480047
0.00060533842
0.00060600262
0.00060678713
0.00060769128
0.00060870306
0.00060980462
0.00060739817
0.00060752387
0.00060778834
0.0006081846
0.00060870814
0.00060935368
0.00061011489
0.00061098445
0.000611954
0.0006130176
0.00061078238
0.00061090236
0.00061115524
0.00061153427
0.00061203518
0.00061265296
0.00061338794
0.00061423061
0.00061516822
0.00061619957
0.00061416364
0.0006142793
0.00061452364
0.00061488975
0.00061537312
0.00061596853
0.00061666976
0.00061746963
0.00061836014
0.00061934012
0.00061751687
0.00061762607
0.00061785736
0.00061820409
0.00061866204
0.00061922631
0.00061990168
0.00062067211
0.0006215286
0.00062246265
0.0006208757
0.00062098012
0.00062120201
0.00062153463
0.00062197368
0.00062251416
0.00062315025
0.00062387526
0.00062468183
0.00062556215
0.00062420718
0.00062430471
0.00062451266
0.0006248246
0.00062523652
0.00062574383
0.00062634611
0.00062703797
0.00062780749
0.00062864726
0.00062752484
0.00062761706
0.00062781452
0.00062811086
0.00062850216
0.00062898399
0.00062955151
0.00063020625
0.00063093497
0.00063173097
0.00063084243
0.00063092879
0.00063111458
0.00063139362
0.00063176224
0.00063221631
0.00063275108
0.0006333676
0.00063406215
0.00063482227
0.00063415971
0.00063424088
0.00063441648
0.00063468054
0.00063502963
0.00063546003
0.00063596747
0.00063654722
0.00063719427
0.00063790348
0.0006374624
0.00063753693
0.00063769911
0.00063794325
0.00063826628
0.00063866483
0.00063913515
0.00063967308
0.00064027621
0.00064096022
0.00064072175
0.00064079203
0.00064094605
0.00064117834
0.00064148617
0.00064186671
0.00064231683
0.00064283317
0.00064341226
0.00064405074
0.00064400565
0.00064406996
0.00064421188
0.00064442623
0.00064471059
0.00064506249
0.00064547926
0.00064595806
0.00064649603
0.00064709042
0.00064723138
0.00064728993
0.00064742021
0.00064761731
0.00064788046
0.00064821599
0.00064861489
0.00064907523
0.00064959523
0.0006501733
0.00065046424
0.00065051946
0.00065064337
0.00065083135
0.0006510817
0.00065139293
0.00065176352
0.00065219204
0.00065267717
0.00065321788
0.00065365875
0.00065370909
0.00065382313
0.00065399647
0.00065422765
0.00065451547
0.00065485879
0.00065525657
0.00065572253
0.0006562479
0.00065681351
0.00065686069
0.00065696861
0.00065713323
0.00065735358
0.00065762909
0.0006579594
0.00065834438
0.00065878418
0.00065927935
0.00065995584
0.00065999912
0.00066009914
0.00066025202
0.00066045698
0.0006607137
0.00066102209
0.00066138234
0.00066179499
0.00066226094
0.00066306688
0.00066308343
0.00066317585
0.00066331745
0.00066350761
0.00066374727
0.00066404118
0.00066438676
0.00066478539
0.00066523886
0.00066617709
0.000666134
0.00066622153
0.00066635617
0.00066653774
0.00066676668
0.00066704383
0.00066737038
0.00066774798
0.00066817863
0.00066924414
0.00066919172
0.00066922377
0.00066934989
0.00066952027
0.00066973547
0.00066999649
0.00067030474
0.00067066205
0.00067107199
0.00067225965
0.00067220421
0.00067217547
0.00067229329
0.00067245288
0.00067265555
0.00067290287
0.00067319681
0.00067353979
0.00067393456
0.00067521095
0.00067515558
0.00067507243
0.00067518407
0.00067533578
0.00067552868
0.00067576438
0.00067604493
0.00067637282
0.00067675086
0.00067810832
0.00067805384
0.00067795587
0.00067802697
0.00067817112
0.00067835464
0.0006785792
0.00067884689
0.00067916027
0.00067951182
0.00068095501
0.00068090102
0.00068080028
0.00068081273
0.00068094223
0.00068110842
0.00068131343
0.00068155984
0.00068185051
0.00068218842
0.00068366031
0.00068360948
0.00068351794
0.0006834885
0.00068361431
0.00068377567
0.00068397461
0.00068421355
0.00068449518
0.00068482231
0.00068631433
0.00068626828
0.00068618582
0.00068612086
0.00068624314
0.00068639991
0.00068659307
0.00068682488
0.00068709791
0.00068741478
0.00068892051
0.00068887915
0.00068880564
0.00068871109
0.00068883
0.00068898238
0.00068917001
0.00068939503
0.00068965985
0.00068996692
0.00069148064
0.00069144388
0.00069137917
0.00069128117
0.00069137619
0.00069152437
0.00069170672
0.00069192526
0.00069218224
0.00069247997
0.00069399615
0.00069396389
0.00069390784
0.00069382185
0.00069388271
0.00069402688
0.00069420419
0.00069441653
0.00069466602
0.00069495269
0.00069646872
0.00069644087
0.00069639328
0.00069631908
0.00069634885
0.00069646139
0.00069660228
0.00069677391
0.00069697875
0.00069721898
0.00069873878
0.00069871136
0.00069866368
0.00069858936
0.00069858033
0.0006986944
0.00069883643
0.00069900844
0.00069921249
0.00069945033
0.00070091018
0.00070088917
0.00070085409
0.00070079801
0.00070077725
0.00070089286
0.00070103606
0.00070120855
0.00070141198
0.00070164771
0.000703044
0.00070302917
0.00070300628
0.00070296785
0.00070294052
0.00070305765
0.00070320205
0.00070337508
0.00070357804
0.00070381191
0.00070514161
0.00070513274
0.00070512161
0.00070510023
0.00070507115
0.00070518978
0.00070533538
0.00070550901
0.00070571164
0.00070594386
0.00070720428
0.00070720117
0.00070720137
0.00070719646
0.0007071769
0.00070729019
0.000707437
0.00070761128
0.00070781368
0.00070804446
0.00070923325
0.00070923568
0.00070924681
0.00070925781
0.00070925852
0.0007093598
0.00070950781
0.00070968279
0.00070988509
0.00071007353
0.0007112297
0.00071123746
0.00071125913
0.00071128547
0.00071127474
0.00071132681
0.00071142792
0.00071154966
0.00071169269
0.00071185709
0.00071296696
0.00071297194
0.00071298646
0.0007130015
0.00071300635
0.00071305814
0.00071316613
0.00071329478
0.00071344428
0.0007136142
0.00071462605
0.00071463546
0.00071465888
0.00071468725
0.00071470985
0.0007147641
0.0007148788
0.00071501423
0.00071517012
0.00071534557
0.0007162598
0.00071627346
0.0007163054
0.00071634655
0.00071638618
0.00071644539
0.00071656665
0.00071670871
0.00071687091
0.00071705189
0.00071786904
0.00071788677
0.00071792688
0.00071798028
0.00071803623
0.00071810274
0.00071823037