/*--------------------------------*- C++ -*----------------------------------*\
  =========                 |
  \\      /  F ield         | OpenFOAM: The Open Source CFD Toolbox
   \\    /   O peration     | Website:  https://openfoam.org
    \\  /    A nd           | Version:  7
     \\/     M anipulation  |
\*---------------------------------------------------------------------------*/
FoamFile
{
    version     2.0;
    format      ascii;
    class       volScalarField;
    location    "80000";
    object      chi_st;
}
// * * * * * * * * * * * * * * * * * * * * * * * * * * * * * * * * * * * * * //

dimensions      [0 0 -1 0 0 0 0];

internalField   nonuniform List<scalar> 
87000
(
1.788035e-05
2.2823258e-05
3.8204749e-05
8.1678046e-05
0.0002273461
0.00092157843
0.0073969417
0.21273229
28.092079
720.10759
9.8842215e-05
0.00015827285
0.00036180766
0.0010549272
0.0039212722
0.020202947
0.16954088
2.7627528
80.751253
1113.0425
0.00042730846
0.00084789617
0.0023147939
0.0074388608
0.028617706
0.14200493
1.0161976
11.207101
157.17218
1250.1714
0.0013543678
0.0031988763
0.0095971596
0.031702442
0.12019247
0.56012984
3.4532677
28.297919
244.77198
1296.2173
0.0034547122
0.0093698311
0.029593344
0.097830551
0.35959651
1.5623431
8.3682655
53.505667
324.81658
1266.3668
0.0075241063
0.022768078
0.073934271
0.241524
0.8542008
3.4486102
16.186407
83.656481
386.61664
1196.7674
0.014548176
0.048015679
0.15807024
0.50695058
1.718885
6.4452834
26.761845
115.18755
429.59642
1121.8827
0.025647141
0.090690286
0.2999931
0.94109422
3.0546184
10.653493
39.544058
145.44983
457.16414
1049.6179
0.04200255
0.15691145
0.51866611
1.5884967
4.9348315
16.029387
53.64254
172.59617
472.32707
978.38764
0.064758685
0.25273258
0.83153283
2.4828013
7.3792773
22.398148
68.214195
195.64519
477.75952
909.72856
0.094926391
0.38359047
1.2527932
3.6443259
10.371227
29.53825
82.635219
214.59306
476.63201
847.31975
0.13333548
0.55395021
1.7925381
5.0792898
13.860763
37.198533
96.404527
229.7075
471.0917
790.90168
0.18063384
0.76707466
2.456218
6.7819088
17.780864
45.188275
109.28055
241.48951
462.69602
739.89469
0.23724587
1.0250857
3.246544
8.7443614
22.030448
53.139804
120.91738
250.33408
452.37391
693.83228
0.30322626
1.3278981
4.1556554
10.914893
26.479736
60.86108
131.11434
256.45803
440.71552
652.12131
0.37839738
1.6734405
5.1718156
13.255454
31.04524
68.269869
139.94429
260.34832
428.31531
614.30523
0.4623712
2.0588567
6.2821711
15.727008
35.638163
75.244595
147.45307
262.38153
415.49009
579.86588
0.55446989
2.4799427
7.4718986
18.289218
40.178301
81.701651
153.70603
262.88307
402.50863
548.42496
0.65391728
2.9321698
8.7246712
20.901393
44.599229
87.594261
158.78784
262.12909
389.56336
519.57278
0.76004161
3.4103969
10.023616
23.532001
48.914229
92.984611
162.8333
260.3522
376.77565
492.99077
0.87234233
3.9131039
11.370365
26.11144
52.835818
97.67741
165.95539
257.71792
364.16328
468.4079
0.98846123
4.4257632
12.699685
28.565808
56.386095
101.60163
168.02692
254.29734
351.7544
445.58237
1.1067551
4.9386805
13.998204
30.901053
59.631688
104.86907
169.18885
250.22162
339.58974
424.30402
1.2255988
5.4449801
15.253778
33.093244
62.535332
107.50928
169.54746
245.59343
327.69895
404.42471
1.3437501
5.9387709
16.452118
35.116385
65.071067
109.54329
169.19959
240.51344
316.04694
385.75057
1.4600289
6.4137529
17.578623
36.950096
67.225721
110.99246
168.21561
235.06535
304.62919
368.11487
1.5732397
6.863851
18.618214
38.574036
68.993179
111.88634
166.66338
229.3358
293.48263
351.42607
1.6819766
7.2828682
19.56053
39.978845
70.377161
112.26479
164.604
223.35258
282.60635
335.62282
1.7854139
7.6666408
20.394572
41.15314
71.383552
112.15572
162.08486
217.15794
271.98627
320.62025
1.8822896
8.0091018
21.111098
42.092626
72.01966
111.58732
159.15778
210.79831
261.60104
306.33113
1.9714978
8.3068811
21.704407
42.794121
72.296032
110.59509
155.87756
204.32639
251.45864
292.68355
2.0519745
8.5567205
22.170958
43.259897
72.231365
109.22764
152.30464
197.76328
241.54909
279.62517
2.1235072
8.7579373
22.510557
43.497818
71.849751
107.50533
148.44672
191.12868
231.87734
267.11682
2.1855758
8.9091892
22.723363
43.513352
71.163783
105.45428
144.34249
184.44694
222.4277
255.11807
2.2376816
9.0100054
22.8114
43.315304
70.198598
103.1247
140.05214
177.75568
213.1922
243.5768
2.2797808
9.0618301
22.780875
42.918518
68.980033
100.55587
135.60584
171.05696
204.16711
232.46941
2.3121153
9.0664589
22.63738
42.339766
67.532253
97.756276
131.00746
164.36844
195.35431
221.76807
2.3348472
9.0258267
22.38613
41.589578
65.881412
94.765666
126.29327
157.71341
186.75659
211.44957
2.3481892
8.942176
22.036141
40.684562
64.049213
91.628085
121.52416
151.12422
178.3663
201.49111
2.3524304
8.8181358
21.5976
39.651402
62.067224
88.356017
116.69296
144.59588
170.18587
191.88073
2.3477424
8.6587815
21.081434
38.500319
59.956892
84.978146
111.81787
138.13228
162.20059
182.59401
2.3358332
8.4696368
20.497216
37.245354
57.735755
81.527997
106.94224
131.75919
154.41356
173.61428
2.3170577
8.251683
19.851806
35.907734
55.423151
78.007228
102.07045
125.49266
146.8322
164.92985
2.2905431
8.0076753
19.150983
34.489377
53.028957
74.429089
97.197324
119.31598
139.44539
156.53337
2.2548509
7.7363299
18.388069
32.957939
50.415969
70.67495
92.33676
113.28745
132.32459
148.49491
2.2082837
7.4201984
17.504379
31.534353
48.34718
67.156415
87.348507
107.29641
125.35817
140.70631
2.1656003
7.1302895
16.749015
30.222982
46.235376
63.781118
82.645632
101.45681
118.53792
133.09676
2.1264598
6.8521829
16.010056
28.84057
43.980992
60.427737
78.115042
95.824049
111.95181
125.75042
2.0849527
6.56979
15.260485
27.42014
41.687083
57.10709
73.709017
90.381356
105.60365
118.67832
2.0403332
6.2827418
14.499012
25.978471
39.387334
53.823328
69.399339
85.10017
99.473493
111.87038
1.9900498
5.9876353
13.726506
24.521683
37.052863
50.439557
65.05314
79.960248
93.593351
105.37853
1.9328513
5.6752116
12.909646
22.953118
34.941067
47.818574
61.099891
74.77586
87.80898
99.068724
1.8797943
5.383279
12.164349
21.611221
33.008548
45.153309
57.366476
70.009819
82.267599
92.950491
1.8309262
5.1102052
11.464759
20.331898
31.043021
42.387709
53.702065
65.465922
76.983803
87.095152
1.7803692
4.8436495
10.780287
19.06526
29.064781
39.596681
50.006093
60.968048
71.889183
81.510973
1.7257184
4.5718833
10.081493
17.760417
26.987459
37.086788
47.154062
56.917832
66.783172
76.033585
1.6714409
4.3118832
9.4247958
16.56721
25.191983
34.744092
44.155744
52.948477
62.004129
70.803417
1.6183867
4.0628808
8.7956887
15.412576
23.406006
32.222903
41.330349
49.897616
57.788743
65.616876
1.5678936
3.8279398
8.2044693
14.335871
21.769853
30.013057
38.654827
46.692588
53.781739
60.90806
1.519297
3.6064536
7.6489446
13.322833
20.22162
27.878891
35.898803
43.438728
50.018815
56.445585
1.4698496
3.3923839
7.1161959
12.345848
18.714105
25.77841
33.140201
40.427468
46.832012
52.273794
1.4197626
3.1851088
6.6046501
11.408979
17.27195
23.786405
30.576391
37.331956
43.749985
49.12306
1.3702396
2.9876788
6.12139
10.527488
15.920443
21.935395
28.218141
34.497829
40.525474
45.875089
1.3210937
2.799891
5.6672822
9.7025653
14.654566
20.198421
25.991698
31.78001
37.343296
42.44836
1.2715139
2.6215651
5.2423376
8.9335709
13.468583
18.564533
23.906575
29.2445
34.388826
39.143659
1.2207774
2.449376
4.8367466
8.2005305
12.334118
16.994945
21.901771
26.800806
31.513021
35.875162
1.1705638
2.2842482
4.4495823
7.5015699
11.254716
15.503121
19.998277
24.490206
28.814181
32.847006
1.1227673
2.1304574
4.0911979
6.8577331
10.266153
14.136488
18.25504
22.400131
26.403104
30.155219
1.0777595
1.9885536
3.7625464
6.2705491
9.3674045
12.89292
16.670195
20.505268
24.227772
27.733248
1.0355614
1.8582487
3.4647329
5.7410374
8.5565622
11.769964
15.232215
18.778015
22.246751
25.528843
0.99653
1.7405529
3.1967982
5.2633729
7.8233614
10.752617
13.923627
17.197936
20.430301
23.503307
0.96102797
1.6342711
2.9544926
4.8301
7.1574999
9.8289222
12.732562
15.74851
18.751112
21.628466
0.92821709
1.5370506
2.7333037
4.4354107
6.5526959
8.9896222
11.64469
14.415399
17.198332
19.890127
0.89770847
1.4480935
2.5318241
4.0764087
6.0024107
8.2240626
10.649269
13.19201
15.761608
18.269082
0.86933871
1.3667348
2.348191
3.7492328
5.4992362
7.5224338
9.7369618
12.067681
14.435514
16.762746
0.8428949
1.2921602
2.1803425
3.4501188
5.0383421
6.8798679
8.901942
11.035056
13.212515
15.366753
0.81828142
1.2238865
2.0270071
3.1764502
4.6162183
6.2915794
8.1365145
10.085933
12.085611
14.077017
0.79501134
1.1604246
1.8849332
2.9252551
4.2308148
5.7525326
7.4340853
9.2166454
11.050299
12.88675
0.77262496
1.1011782
1.75415
2.6954384
3.878888
5.2598694
6.7913138
8.4203584
10.099747
11.791057
0.75134315
1.0464727
1.6346244
2.485888
3.5578571
4.8099704
6.2030787
7.6916263
9.2309039
10.785823
0.73139466
0.99643169
1.5259743
2.2952682
3.2654116
4.3998653
5.665922
7.0250669
8.436204
9.8650462
0.71305204
0.95109382
1.4275244
2.1220633
2.999326
4.026505
5.17633
6.4158696
7.7096254
9.0239913
0.69617475
0.9098663
1.3381021
1.9639342
2.7563815
3.6869253
4.7311013
5.8602409
7.0450834
8.255409
0.68026087
0.87197294
1.25594
1.8185868
2.5354464
3.3793558
4.326859
5.3549779
6.4387331
7.5524159
0.66529044
0.83711249
1.1810562
1.6871732
2.3360245
3.1010054
3.9604366
4.8961641
5.8865719
6.9102591
0.65159127
0.80560259
1.1138131
1.5692477
2.1560703
2.8488554
3.6284803
4.4801705
5.3852716
6.3249405
0.63929891
0.77739774
1.0537297
1.4636087
1.9936685
2.6206304
3.3282799
4.1036277
4.9305314
5.7927874
0.62826595
0.75215888
1.0001162
1.3681324
1.8455479
2.4144488
3.058358
3.763638
4.5185921
5.309893
0.61847317
0.72968083
0.95225177
1.2823425
1.712735
2.2292547
2.8146333
3.4568324
4.1466986
4.8727156
0.61017798
0.71008746
0.90990595
1.2061342
1.5944868
2.0632098
2.5953436
3.1806883
3.8112146
4.4772279
0.60339878
0.69323602
0.87281128
1.1390275
1.4890811
1.9136073
2.3982357
2.9327762
3.5093302
4.1204792
0.59809364
0.67893413
0.84045367
1.079914
1.3951771
1.7796515
2.2217338
2.7102822
3.2382659
3.7996832
0.59438813
0.66719555
0.81261603
1.0282591
1.3125026
1.6612483
2.0648153
2.5116139
2.9956174
3.5117235
0.59249135
0.65816494
0.78935383
0.98401026
1.2407999
1.5569443
1.9248289
2.334004
2.7783507
3.2537698
0.59253273
0.65187178
0.77047855
0.94652471
1.1787596
1.4651033
1.8004392
2.1763184
2.5854398
3.0239126
0.59468186
0.64840204
0.75584108
0.91530497
1.1256962
1.3855597
1.6919839
2.037811
2.4143783
2.8188118
0.59912064
0.64786561
0.74541119
0.89021182
1.0813495
1.317855
1.5976977
1.9152884
2.2631234
2.6377763
0.60603634
0.65037424
0.7391494
0.87096535
1.0450623
1.2608194
1.5165807
1.8086954
2.131183
2.4787602
0.61571757
0.65615836
0.73717422
0.85751628
1.0165733
1.2139778
1.4483855
1.7178324
2.0172524
2.3400519
0.62854722
0.6655558
0.73973659
0.84999587
0.99586775
1.1771427
1.3927577
1.6412934
1.9189692
2.2202706
0.64479557
0.67878803
0.7469619
0.84839107
0.98268073
1.149647
1.3485183
1.5781915
1.8363401
2.1185388
0.66480449
0.69613656
0.75900601
0.8526202
0.97666783
1.1310634
1.3152531
1.5283672
1.7693018
2.034237
0.68909234
0.71809849
0.77633337
0.8631218
0.9782313
1.1216599
1.2930048
1.4915854
1.7168668
1.9657514
0.71807302
0.74504526
0.79922563
0.8800361
0.98733065
1.121184
1.2812684
1.4670525
1.6781882
1.912509
0.75219138
0.7773862
0.82802299
0.90360959
1.0041051
1.1296158
1.2798288
1.4543643
1.653036
1.874481
0.79191544
0.81556106
0.8631092
0.93416536
1.0287801
1.1469995
1.2885581
1.4532515
1.6409991
1.8509784
0.83766016
0.85995745
0.9048177
0.97195118
1.0614587
1.1733065
1.3073046
1.463383
1.6415446
1.8412897
0.88973254
0.91085315
0.95338412
1.0171506
1.1022166
1.2084751
1.3358465
1.4843579
1.6540733
1.8446422
0.94835223
0.96845764
1.0090125
1.0698713
1.1509835
1.2522853
1.3738103
1.5156265
1.6778427
1.860121
1.0135832
1.032824
1.0716504
1.1298513
1.2073837
1.3042747
1.4205829
1.5564053
1.7118816
1.8865702
1.0850482
1.1034951
1.1406962
1.196449
1.2707592
1.363667
1.4752474
1.6056145
1.7549198
1.922531
1.1618307
1.1795255
1.2152201
1.2687363
1.3400863
1.4293184
1.5365144
1.6617926
1.805304
1.9661343
1.2426147
1.2596076
1.2938905
1.3452963
1.4138411
1.4995747
1.6025784
1.7229665
1.8607948
2.01481
1.3255177
1.3418262
1.3747275
1.4240626
1.489846
1.5721227
1.6709644
1.7864689
1.918393
2.0653642
1.4079707
1.4235868
1.4550851
1.5023121
1.5652757
1.6440083
1.7385632
1.8490116
1.9747708
2.11458
1.4867157
1.5016098
1.53164
1.5766573
1.6366597
1.7116632
1.8016977
1.9067006
2.0258431
2.1583199
1.5578506
1.5719724
1.6004276
1.6430705
1.6998862
1.7708696
1.8560215
1.9550921
2.0672434
2.192183
1.6170673
1.6303538
1.6571021
1.6971709
1.7505308
1.817154
1.8970099
1.9897159
2.0945719
2.2115646
1.659941
1.6723252
1.6972279
1.7345141
1.7841406
1.8460579
1.9201909
2.0061382
2.1033856
2.2119609
1.6823787
1.6937988
1.71673
1.7510458
1.7966912
1.8535981
1.9216812
2.0005843
2.089908
2.1896291
1.681202
1.6916141
1.7124867
1.7437045
1.7852056
1.8369095
1.8987163
1.9703632
2.0516041
2.142238
1.6547263
1.6641143
1.6828999
1.7109819
1.7482966
1.7947586
1.8502616
1.914678
1.9877885
2.0692555
1.6031843
1.6115665
1.6283079
1.6533243
1.6865556
1.7279199
1.7773147
1.8346178
1.8996873
1.9723503
1.5289009
1.5363284
1.5511365
1.5732581
1.6026411
1.639213
1.6828825
1.7335412
1.7910635
1.8553085
1.4361056
1.4426593
1.4557052
1.4751928
1.5010808
1.5333104
1.571807
1.6164822
1.6672351
1.7239523
1.330308
1.3360889
1.347583
1.3647545
1.387574
1.4159973
1.4499686
1.4894214
1.5342803
1.5844611
1.2174363
1.2225547
1.2327255
1.2479243
1.2681327
1.2933217
1.3234533
1.3584829
1.3983597
1.4430276
1.1029368
1.107503
1.1165756
1.1301383
1.1481818
1.1706889
1.197637
1.2289995
1.2647464
1.3048453
0.99119865
0.99530906
1.003479
1.0156964
1.0319564
1.0522488
1.0765593
1.1048706
1.1371671
1.1734386
0.88547457
0.8892038
0.89662081
0.90771569
0.92248786
0.94093367
0.96304746
0.98882672
1.0182756
1.0513977
0.78779084
0.79120292
0.79799525
0.80816055
0.82170397
0.83862975
0.85894271
0.88264886
0.90975091
0.94025425
0.69910811
0.70226009
0.70854225
0.71794816
0.73048499
0.74616018
0.76498234
0.78696163
0.81210979
0.84044937
0.61967416
0.62260945
0.62846716
0.63724109
0.64893996
0.66357379
0.68115452
0.70169628
0.72521512
0.75173809
0.54919602
0.55194915
0.55745034
0.56569315
0.57668714
0.59044384
0.60697719
0.62630357
0.64844163
0.67342204
0.48706008
0.48965839
0.49485652
0.50264751
0.51304126
0.52605009
0.54168908
0.55997596
0.58093096
0.60458649
0.43249871
0.43496391
0.43990128
0.44730329
0.45717981
0.46954351
0.48440991
0.50179723
0.52172614
0.54422982
0.38469723
0.38704672
0.39175712
0.3988203
0.40824592
0.42004655
0.4342376
0.45083715
0.46986596
0.49135723
0.34285759
0.3451054
0.34961606
0.35638081
0.36540889
0.3767125
0.39030671
0.40620925
0.42444023
0.44503188
0.30623527
0.30839282
0.31272584
0.31922499
0.32789892
0.3387593
0.35182061
0.36709989
0.38461641
0.40440147
0.27415662
0.27623321
0.28040655
0.28666677
0.2950219
0.30548303
0.31806395
0.33278075
0.34965154
0.36870636
0.2460231
0.24802634
0.25205478
0.2580981
0.26616377
0.27626215
0.28840602
0.30261038
0.31889236
0.33728069
0.22130875
0.22324507
0.22714101
0.23298584
0.24078637
0.25055222
0.26229533
0.27602972
0.29177112
0.30954659
0.19955675
0.20143149
0.20520533
0.21086713
0.21842309
0.22788205
0.23925501
0.25255488
0.2677962
0.28500428
0.18037224
0.18218992
0.1858504
0.19134221
0.19867094
0.20784465
0.21887346
0.23176928
0.2465454
0.26322546
0.1634156
0.16518006
0.16873464
0.17406764
0.18118405
0.19009125
0.20079847
0.21331644
0.22765705
0.24384229
0.14839267
0.1501073
0.15356255
0.15874648
0.16566351
0.1743203
0.18472514
0.19688773
0.21081885
0.22653911
0.13505298
0.1367206
0.14008208
0.14512525
0.15185399
0.16027425
0.17039348
0.18222034
0.19576452
0.21104538
0.12317937
0.12480251
0.1280751
0.13298484
0.13953512
0.14773126
0.15757995
0.16908901
0.18226708
0.19713187
0.11258903
0.11416949
0.11735683
0.12213894
0.12851884
0.13650113
0.14609171
0.15729761
0.17012647
0.18459452
0.10311958
0.10465857
0.10776385
0.11242401
0.11864132
0.12641976
0.13576447
0.14668147
0.15917728
0.17326683
0.094627051
0.096126703
0.099153604
0.10369604
0.10975744
0.11734102
0.12645005
0.13708991
0.14926629
0.16299297
0.086989269
0.08845177
0.091403532
0.095835487
0.10175082
0.10914941
0.11803402
0.12840918
0.14027988
0.15365896
0.080107168
0.081534252
0.084415333
0.088740405
0.094513729
0.10173725
0.11040728
0.12052661
0.13210247
0.14514671
0.073900294
0.075293136
0.078105424
0.082327082
0.087962889
0.095016544
0.10348589
0.11336442
0.12465587
0.13737681
0.06828954
0.069649246
0.072394934
0.076516476
0.082018211
0.088906734
0.097181072
0.10683085
0.11785185
0.13025918
0.063207791
0.064535477
0.06721679
0.071241617
0.076613947
0.083339899
0.09142536
0.10086063
0.1116239
0.12372969
0.058596849
0.059893617
0.062512746
0.066444132
0.071691418
0.07826023
0.086157587
0.095377519
0.10590244
0.11772861
0.054406047
0.055672839
0.05823163
0.06207232
0.067198232
0.073614513
0.081327486
0.090342736
0.10064089
0.11219432
0.050589973
0.051827746
0.05432814
0.058081123
0.063089734
0.069358644
0.076893597
0.085701339
0.095767745
0.10706978
0.047108639
0.048318213
0.050761814
0.054429441
0.05932385
0.065449336
0.072811087
0.081414892
0.091259686
0.1023228
0.043927492
0.045109736
0.047498287
0.051083207
0.055866998
0.061853661
0.069047867
0.077454653
0.087079681
0.097902523
0.041015661
0.042171367
0.044506436
0.04801098
0.052687241
0.058538931
0.065570346
0.073785868
0.083190197
0.093774617
0.038346443
0.039476328
0.041759365
0.045185752
0.04975753
0.055478058
0.062351157
0.070380521
0.07956989
0.08992525
0.035895812
0.037000641
0.03923317
0.042583672
0.047053973
0.052647128
0.059366826
0.067216258
0.076198133
0.08632153
0.033642022
0.03472248
0.036905855
0.040182484
0.044553963
0.050023068
0.056593201
0.064267093
0.073046766
0.082940103
0.031566557
0.032623281
0.034758796
0.037963538
0.042238937
0.047587494
0.054012154
0.061515306
0.070098374
0.079768052
0.02965269
0.03068636
0.032775375
0.035910257
0.040092249
0.045323583
0.051606897
0.058944528
0.067337472
0.076791111
0.027885331
0.02889659
0.030940379
0.03400729
0.038098369
0.043215573
0.049361205
0.056537528
0.064745123
0.073988202
0.026251001
0.027240413
0.029240116
0.0322408
0.036243348
0.041249491
0.047261245
0.054280595
0.06230769
0.071345948
0.024737903
0.025706095
0.027662967
0.03059928
0.034515739
0.039413824
0.045295311
0.052161968
0.060013917
0.068854177
0.023335455
0.02428301
0.026198235
0.029071997
0.032904872
0.037698162
0.043453377
0.050171872
0.057853745
0.066501745
0.022033586
0.022961081
0.0248358
0.027648683
0.031400135
0.036091262
0.041723388
0.04829762
0.055814056
0.064275171
0.020823748
0.021731728
0.023567056
0.026320778
0.029993184
0.03458518
0.04009776
0.046531691
0.053887054
0.062166118
0.019698276
0.020587291
0.022384319
0.025080479
0.028675912
0.03317138
0.038567785
0.044865709
0.052065181
0.060168396
0.018650157
0.019520749
0.021280587
0.023920909
0.027441775
0.031843768
0.037127467
0.0432932
0.050340818
0.058272488
0.017672603
0.018525274
0.020248907
0.022834815
0.026282909
0.030593595
0.035767355
0.04180443
0.04870448
0.056469706
0.016759712
0.017594928
0.019283314
0.021816297
0.025193712
0.029415836
0.034482978
0.040395213
0.047152049
0.054755672
0.015906991
0.01672526
0.018379423
0.020861009
0.024169765
0.028305847
0.03326943
0.039060517
0.045678605
0.053125797
0.015109884
0.015911694
0.017532621
0.019964306
0.023206436
0.02725908
0.032122269
0.037795748
0.044278737
0.051573181
0.014363503
0.015149296
0.016737862
0.019120928
0.02229808
0.026269244
0.031034274
0.036592767
0.042944159
0.050090619
0.013663746
0.014433918
0.015990935
0.018326647
0.021440599
0.02533267
0.030002684
0.035450225
0.041674463
0.048676827
0.013007422
0.01376244
0.015288839
0.01757856
0.020631062
0.024446117
0.029023412
0.034362358
0.040461927
0.047323511
0.012391102
0.013131313
0.014627795
0.016872589
0.019865138
0.023605211
0.028092459
0.033326272
0.039305695
0.046031972
0.011812092
0.012537933
0.014005403
0.016206681
0.019141166
0.022808495
0.027208192
0.032339542
0.038201462
0.04479496
0.011267524
0.011979362
0.013418532
0.015577297
0.018454976
0.022051125
0.026365192
0.031396533
0.03714429
0.043609448
0.010754777
0.011452951
0.012864528
0.014981895
0.017804362
0.021331482
0.025562725
0.030497347
0.036134176
0.042473933
0.010271854
0.010956745
0.012341514
0.014418627
0.017187343
0.020647132
0.024797366
0.029637171
0.035165295
0.041382441
0.0098163692
0.010488303
0.01184689
0.013884651
0.016600835
0.019994916
0.024066299
0.028814106
0.034237117
0.040336004
0.0093865774
0.010045932
0.011379041
0.013378592
0.016043818
0.019374148
0.02336887
0.02802702
0.033347308
0.039330203
0.0089806342
0.0096277073
0.010936093
0.012898471
0.01551387
0.018781788
0.022701458
0.027271868
0.032491714
0.038361565
0.0085968253
0.0092319822
0.01051632
0.012442338
0.015009092
0.018216185
0.022062841
0.026548058
0.031670525
0.037430565
0.0082340503
0.0088576283
0.01011849
0.012009071
0.014528495
0.017676354
0.021451822
0.025853825
0.030880959
0.036533398
0.0078907104
0.0085029135
0.0097407237
0.011596797
0.014070114
0.017160077
0.020865972
0.025186685
0.03012086
0.035668732
0.0075654293
0.0081664802
0.0093818546
0.011204421
0.013632819
0.016666399
0.02030463
0.024546402
0.029390292
0.034836287
0.0072574078
0.0078476035
0.0090411787
0.010831116
0.013215735
0.016194374
0.019766599
0.023931239
0.028686791
0.034033133
0.0069653684
0.0075449757
0.008717251
0.010475273
0.012817114
0.015742098
0.019249851
0.023339156
0.028008456
0.033257533
0.0066882115
0.0072574626
0.0084088886
0.010135633
0.012435612
0.015308167
0.018752924
0.022768625
0.027353673
0.032507755
0.0064247422
0.0069839118
0.0081149509
0.0098111013
0.012070387
0.014891998
0.018275404
0.022219433
0.026722453
0.031784074
0.0061742449
0.006723509
0.0078344888
0.0095006442
0.011720154
0.01449188
0.017815173
0.021689002
0.026111706
0.031082788
0.0059356202
0.0064752749
0.007566779
0.0092038462
0.011384747
0.014108058
0.017373071
0.021178832
0.025523616
0.03040682
0.0057080622
0.0062382079
0.0073104632
0.0089187534
0.011061442
0.013736875
0.016944247
0.020682652
0.024950315
0.029746517
0.0054913911
0.0060122425
0.0070656683
0.0086457823
0.010750969
0.013379388
0.0165302
0.02020251
0.024394497
0.029105358
0.0052849006
0.0057965952
0.0068314872
0.0083838403
0.010452089
0.013034295
0.016129571
0.019737021
0.023854804
0.028482045
0.0050882925
0.0055910545
0.0066078543
0.0081330829
0.010165224
0.012702304
0.015743407
0.019287613
0.023333065
0.027878846
0.0049009204
0.0053949367
0.006394037
0.0078926937
0.0098894514
0.012382437
0.015370648
0.018853075
0.022827907
0.027294177
0.0047223154
0.0052077959
0.0061896143
0.0076622818
0.0096244579
0.012074447
0.015011066
0.01843318
0.022338987
0.026727253
0.0045518876
0.0050290126
0.0059939185
0.0074411526
0.0093694953
0.01177736
0.014663351
0.018026177
0.02186401
0.026175616
0.0043890661
0.0048579934
0.0058063098
0.0072286279
0.0091238384
0.011490407
0.014326775
0.017631593
0.021403073
0.025639952
0.004233457
0.0046943715
0.0056264838
0.0070244704
0.0088872839
0.01121344
0.014001296
0.01724946
0.020956166
0.025120118
0.0040847907
0.004537878
0.0054541574
0.0068283649
0.0086595006
0.010946136
0.013686579
0.016879405
0.020522858
0.024615615
0.0039427282
0.0043881655
0.0052889716
0.0066399426
0.0084401137
0.01068811
0.013382223
0.016520997
0.020102679
0.024125923
0.0038069268
0.0042448879
0.0051305723
0.0064588369
0.0082287404
0.010438961
0.013087798
0.016173772
0.019695123
0.023650489
0.0036770638
0.0041077172
0.0049786215
0.0062846946
0.0080250087
0.010198293
0.012802879
0.015837266
0.019299652
0.023188611
0.0035527855
0.0039762941
0.0048327453
0.0061171137
0.0078284666
0.0099655726
0.012526791
0.015510403
0.018914257
0.022736696
0.0034335503
0.0038500389
0.0046922746
0.0059552668
0.007638031
0.0097393231
0.012257468
0.01519067
0.018536849
0.022294349
0.003318881
0.0037284229
0.0045566078
0.0057985094
0.007453131
0.0095192598
0.011995247
0.014879255
0.018169179
0.021863331
0.0032087554
0.0036114988
0.0044259366
0.0056472086
0.0072743098
0.0093060538
0.011740819
0.014576733
0.017811678
0.021443966
0.0031031902
0.0034992824
0.0043002721
0.0055013666
0.0071015563
0.0090996796
0.011494144
0.01428306
0.017464306
0.021036197
0.0030020356
0.0033916265
0.0041794725
0.0053608484
0.0069347438
0.0089000198
0.011255116
0.013998139
0.017126971
0.020639931
0.0029051226
0.0032883629
0.0040633705
0.0052254884
0.006773708
0.0087069115
0.011023573
0.013721805
0.016799505
0.020254999
0.0028122606
0.0031893002
0.0039517725
0.0050950886
0.006618244
0.0085201401
0.010799285
0.013453811
0.016481632
0.019881061
0.0027232434
0.0030942274
0.0038444583
0.0049694146
0.0064680982
0.0083394189
0.010581902
0.013193679
0.01617251
0.019516214
0.0026377606
0.0030028207
0.0037410712
0.0048480487
0.0063227118
0.0081638825
0.010370012
0.012939111
0.015868822
0.019157112
0.0025553721
0.002914581
0.0036409799
0.0047301285
0.0061809549
0.0079922963
0.010162607
0.012689877
0.015571787
0.018806334
0.0024759422
0.0028293831
0.0035441168
0.0046157649
0.0060432645
0.0078254491
0.0099607704
0.012447237
0.015282541
0.01846468
0.0023995615
0.0027473611
0.0034506889
0.0045052281
0.0059099197
0.0076635962
0.0097647285
0.012211358
0.015001159
0.018132077
0.0023261392
0.0026684217
0.0033605939
0.0043983985
0.0057807778
0.0075065561
0.0095741979
0.011981594
0.014726105
0.017805422
0.0022554148
0.0025922823
0.0032734945
0.0042948307
0.0056551955
0.0073533428
0.0093876474
0.011755994
0.014455847
0.017484901
0.0021871532
0.0025186685
0.0031890501
0.0041941227
0.0055327787
0.0072037573
0.0092054404
0.011535746
0.014192138
0.01717229
0.0021213731
0.0024476414
0.0031074116
0.004096563
0.0054139885
0.0070584255
0.009028265
0.011321444
0.01393544
0.016867939
0.0020581061
0.0023792429
0.0030286375
0.004002226
0.0052989073
0.0069174224
0.0088561767
0.011113113
0.013685692
0.016571386
0.0019972116
0.0023133309
0.002952579
0.0039109453
0.0051873281
0.0067804588
0.008688635
0.010909566
0.013440482
0.016278701
0.0019384196
0.0022496022
0.0028788543
0.0038221898
0.0050784568
0.0066462947
0.0085239491
0.010709187
0.013199248
0.015991443
0.0018815766
0.0021878736
0.0028072372
0.0037357204
0.004972158
0.0065151789
0.0083630404
0.01051351
0.012963815
0.01571128
0.0018267527
0.002128263
0.0027379449
0.0036518998
0.0048689616
0.0063877569
0.0082065461
0.010323107
0.012734686
0.015438625
0.0017739725
0.002070803
0.0026710218
0.0035707808
0.0047689181
0.0062640634
0.0080544862
0.010137967
0.012511736
0.015172959
0.001723114
0.0020153694
0.0026063358
0.0034922122
0.0046718342
0.0061438202
0.0079063421
0.0099569169
0.012292452
0.014909855
0.0016739172
0.0019616687
0.002543512
0.0034156621
0.0045768959
0.0060257259
0.0077602262
0.0097779359
0.012075812
0.014650761
0.0016262242
0.001909503
0.0024822893
0.0033408261
0.0044838681
0.0059099068
0.0076170147
0.0096027356
0.011864017
0.014397761
0.0015801392
0.0018590283
0.0024229336
0.0032681382
0.004393391
0.0057971764
0.0074775624
0.0094320992
0.011657753
0.014151438
0.0015357331
0.0018103315
0.0023655589
0.0031977424
0.0043056315
0.0056877106
0.0073420513
0.0092662195
0.011457194
0.013911848
0.0014929364
0.001763343
0.0023100935
0.003129559
0.0042204866
0.0055813514
0.0072102071
0.0091045028
0.011260763
0.013675207
0.0014515282
0.0017178235
0.0022562502
0.0030631913
0.0041373306
0.0054770398
0.0070802018
0.0089440804
0.011065245
0.013440132
0.0014112647
0.0016734598
0.0022035684
0.0029979828
0.0040553541
0.00537401
0.0069517948
0.0087859776
0.010873166
0.013209787
0.0013721996
0.0016303463
0.0021522629
0.0029343752
0.0039753179
0.0052733992
0.0068264504
0.0086317391
0.010685885
0.012985325
0.0013344993
0.0015886865
0.0021025905
0.002872673
0.0038975633
0.0051755631
0.006704501
0.0084816533
0.010503659
0.012766981
0.0012981984
0.0015485224
0.0020546148
0.002812976
0.003822235
0.0050806942
0.006586189
0.0083359889
0.010326699
0.012554419
0.0012631231
0.0015096908
0.0020081772
0.0027551148
0.0037491204
0.0049884719
0.0064708248
0.0081930442
0.010151331
0.012341624
0.0012290983
0.0014719323
0.0019628484
0.002698364
0.003677
0.0048968762
0.0063555406
0.0080499433
0.0099763523
0.012130723
0.0011954257
0.0014345856
0.0019180347
0.0026422926
0.0036058392
0.0048067573
0.0062425899
0.0079102686
0.0098060243
0.011925844
0.0011626227
0.0013979765
0.0018737364
0.0025864565
0.0035346094
0.0047162742
0.0061289999
0.0077697372
0.0096347602
0.011720076
0.0011314801
0.0013632504
0.0018317497
0.0025335684
0.0034671819
0.004630672
0.0060215945
0.0076369153
0.009472937
0.011525714
0.001101525
0.0013297834
0.001791189
0.0024823705
0.0034018073
0.0045475892
0.0059172888
0.0075078671
0.0093156038
0.011336107
0.0010727754
0.0012976535
0.0017522123
0.0024331105
0.0033388186
0.0044674041
0.0058162149
0.007381798
0.0091601777
0.011147087
0.0010448542
0.0012663976
0.0017141845
0.0023848487
0.0032767604
0.0043878324
0.0057153731
0.0072561122
0.0090061433
0.010961268
0.0010176107
0.0012358101
0.0016768143
0.002337272
0.0032155358
0.0043095184
0.0056165727
0.0071334214
0.0088561066
0.010780221
0.0009912182
0.0012061593
0.0016405673
0.0022911144
0.0031561386
0.0042335313
0.0055204954
0.007013394
0.0087079868
0.010599969
0.00096559703
0.0011773377
0.0016052377
0.0022459417
0.0030976935
0.0041582482
0.005424744
0.0068937128
0.0085611037
0.010422713
0.00094058212
0.0011491022
0.0015704736
0.0022013585
0.0030399899
0.0040841308
0.0053309714
0.0067770991
0.008418446
0.010250819
0.00091640624
0.0011218061
0.0015368635
0.0021582702
0.0029842569
0.0040125822
0.0052404313
0.0066641114
0.0082790818
0.010081124
0.00089312385
0.0010954983
0.0015044049
0.0021165131
0.0029299757
0.0039424437
0.0051509551
0.0065518802
0.008141051
0.009914028
0.00087044297
0.0010697784
0.0014725204
0.0020753533
0.0028764114
0.0038732889
0.0050628742
0.0064414554
0.0080048593
0.0097489238
0.0008483191
0.0010446708
0.0014413516
0.0020350297
0.0028237718
0.0038051216
0.0049760502
0.0063329844
0.0078714618
0.0095869589
0.0008268037
0.0010202016
0.0014108988
0.0019955757
0.0027722258
0.0037383021
0.0048907393
0.0062259075
0.0077395435
0.009427581