/*--------------------------------*- C++ -*----------------------------------*\
  =========                 |
  \\      /  F ield         | OpenFOAM: The Open Source CFD Toolbox
   \\    /   O peration     | Website:  https://openfoam.org
    \\  /    A nd           | Version:  7
     \\/     M anipulation  |
\*---------------------------------------------------------------------------*/
FoamFile
{
    version     2.0;
    format      ascii;
    class       volScalarField;
    location    "80000";
    object      defect;
}
// * * * * * * * * * * * * * * * * * * * * * * * * * * * * * * * * * * * * * //

dimensions      [0 2 -2 0 0 0 0];

internalField   nonuniform List<scalar> 
87000
(
-4999.3809
-4999.4118
-4999.5006
-4999.699
-5000.1568
-5001.3567
-5005.383
-5026.1412
-5243.5386
-10607.984
-4999.6919
-4999.9645
-5000.7032
-5002.3234
-5005.9886
-5015.2664
-5043.8058
-5164.0978
-5952.4061
-13151.395
-5002.6355
-5003.5691
-5006.0695
-5011.4517
-5023.3018
-5052.1075
-5134.7989
-5439.3764
-6950.906
-15411.608
-5010.2035
-5012.4667
-5018.4799
-5031.2361
-5058.7097
-5123.2724
-5298.1441
-5873.4983
-8175.4013
-17438.914
-5024.7559
-5029.276
-5041.2013
-5066.1704
-5118.8743
-5238.8583
-5546.4805
-6459.4124
-9510.1612
-19104.789
-5048.9034
-5056.8506
-5077.6754
-5120.7272
-5209.8024
-5406.2601
-5883.4431
-7170.5407
-10859.348
-20433.254
-5085.395
-5098.1493
-5131.3435
-5199.0933
-5336.4718
-5629.9111
-6305.7307
-7974.8166
-12168.588
-21525.937
-5137.0243
-5156.1299
-5205.5128
-5304.9952
-5502.6318
-5911.4056
-6805.305
-8842.1745
-13414.309
-22464.167
-5206.5492
-5233.6637
-5303.2591
-5441.6356
-5710.9109
-6250.2611
-7371.0789
-9742.8173
-14581.192
-23278.406
-5296.6042
-5333.436
-5427.296
-5611.4594
-5962.3533
-6642.8073
-7989.7409
-10654.522
-15663.054
-23987.785
-5409.6212
-5457.8613
-5579.9076
-5816.1802
-6256.8961
-7084.7046
-8649.8607
-11563.614
-16667.821
-24623.503
-5547.7901
-5609.0541
-5762.9511
-6056.8824
-6593.6457
-7571.0521
-9341.046
-12460.164
-17603.168
-25203.276
-5713.0671
-5788.8535
-5977.9031
-6334.1222
-6971.197
-8097.0871
-10056.221
-13340.887
-18480.792
-25743.667
-5907.1979
-5998.8689
-6225.9724
-6648.2859
-7388.4915
-8657.7565
-10784.672
-14198.874
-19303.911
-26248.829
-6131.5702
-6240.2919
-6507.7828
-6998.6083
-7841.5992
-9246.5003
-11519.791
-15029.076
-20074.371
-26719.636
-6387.2613
-6513.9762
-6823.5216
-7384.0569
-8327.927
-9859.4713
-12258.84
-15834.129
-20801.737
-27165.581
-6675.0963
-6820.5075
-7173.1843
-7803.596
-8845.0921
-10492.994
-12998.702
-16615.518
-21492.486
-27591.869
-6995.6769
-7160.2302
-7556.5154
-8256.0452
-9390.7414
-11143.909
-13737.229
-17374.823
-22152.115
-28002.912
-7349.3277
-7533.225
-7973.0643
-8740.0703
-9962.5636
-11809.549
-14473.006
-18113.744
-22785.183
-28401.942
-7736.2225
-7939.4332
-8422.2206
-9254.2547
-10558.531
-12489.432
-15207.565
-18836.955
-23398.466
-28794.723
-8156.5746
-8378.9403
-8903.9237
-9798.7783
-11176.312
-13176.285
-15935.627
-19541.736
-23990.707
-29178.566
-8610.0041
-8850.9886
-9416.3209
-10368.945
-11811.359
-13867.955
-16653.096
-20224.724
-24559.269
-29549.499
-9095.6874
-9354.4828
-9957.7119
-10963.08
-12462.705
-14565.058
-17362.869
-20890.424
-25109.386
-29911.649
-9612.8778
-9888.4113
-10526.77
-11579.717
-13128.621
-15266.186
-18065.311
-21540.785
-25643.678
-30267.061
-10160.603
-10451.655
-11122.121
-12217.24
-13807.34
-15969.963
-18760.286
-22177.177
-26163.971
-30616.358
-10737.743
-11042.959
-11742.246
-12873.928
-14497.203
-16675.247
-19447.682
-22800.566
-26671.736
-30960.196
-11343.05
-11660.961
-12385.567
-13547.998
-15196.512
-17380.963
-20127.399
-23411.779
-27168.363
-31299.564
-11975.115
-12304.117
-13050.362
-14237.75
-15903.844
-18086.34
-20799.712
-24011.737
-27654.754
-31635.116
-12632.445
-12970.898
-13735.034
-14941.531
-16617.83
-18790.683
-21464.648
-24601.158
-28131.797
-31967.19
-13313.441
-13659.626
-14437.77
-15657.653
-17337.165
-19493.274
-22122.223
-25180.719
-28600.326
-32295.991
-14016.395
-14368.551
-15156.87
-16384.551
-18060.662
-20193.53
-22772.617
-25751.169
-29061.368
-32622.171
-14739.515
-15095.861
-15890.575
-17120.705
-18787.245
-20891.049
-23416.28
-26313.455
-29515.765
-32946.352
-15480.912
-15839.748
-16637.233
-17864.753
-19516.091
-21585.686
-24053.337
-26867.897
-29964.042
-33268.805
-16238.757
-16598.426
-17395.197
-18615.361
-20246.297
-22277.003
-24683.896
-27415.005
-30406.679
-33589.647
-17011.129
-17370.032
-18162.791
-19371.185
-20976.971
-22964.749
-25308.417
-27955.688
-30844.664
-33909.519
-17796.1
-18152.741
-18938.444
-20131.066
-21707.471
-23648.823
-25927.343
-28490.54
-31278.516
-34228.883
-18591.765
-18944.775
-19720.62
-20893.842
-22437.22
-24329.088
-26540.611
-29019.687
-31708.501
-34547.826
-19396.248
-19744.366
-20507.803
-21658.318
-23165.412
-25005.326
-27148.479
-29543.633
-32135.173
-34866.754
-20207.718
-20549.789
-21298.509
-22423.45
-23891.415
-25677.282
-27751.334
-30063.224
-32559.39
-35186.322
-21024.398
-21359.386
-22091.326
-23188.276
-24614.932
-26345.058
-28349.332
-30578.56
-32981.297
-35506.677
-21844.468
-22171.449
-22884.931
-23951.817
-25335.235
-27008.436
-28942.553
-31089.867
-33401.065
-35827.793
-22666.175
-22984.452
-23678.078
-24713.166
-26051.747
-27667.116
-29531.2
-31597.655
-33819.28
-36150.159
-23488.072
-23797.028
-24469.511
-25471.401
-26764.051
-28320.846
-30114.999
-32101.8
-34235.939
-36473.729
-24308.628
-24607.694
-25258.039
-26225.54
-27471.303
-28969.22
-30693.824
-32602.19
-34650.944
-36798.444
-25126.004
-25414.805
-26042.188
-26974.26
-28171.858
-29608.158
-31263.423
-33094.938
-35060.86
-37121.296
-25937.164
-26214.912
-26817.521
-27711.032
-28866.578
-30249.342
-31832.866
-33587.476
-35471.712
-37447.07
-26742.318
-27009.255
-27588.319
-28447.17
-29560.305
-30888.611
-32404.772
-34084.369
-35888.464
-37780.448
-27542.524
-27798.973
-28355.057
-29179.822
-30248.811
-31522.116
-32973.203
-34580.262
-36306.699
-38117.859
-28337.485
-28583.437
-29116.615
-29907.366
-30931.823
-32150.382
-33537.827
-35074.372
-36725.469
-38458.282
-29126.439
-29361.931
-29872.284
-30629.023
-31609.033
-32773.475
-34098.505
-35566.353
-37144.28
-38801.146
-29908.336
-30133.453
-30621.111
-31344.134
-32280.084
-33390.562
-34652.103
-36052.443
-37559.395
-39142.952
-30681.908
-30896.332
-31360.761
-32048.979
-32938.492
-34003.05
-35210.806
-36541.925
-37977.965
-39489.202
-31447.069
-31651.179
-32093.296
-32748.804
-33596.967
-34615.134
-35768.096
-37035.269
-38402.795
-39843.222
-32205.204
-32399.409
-32820.107
-33444.205
-34252.178
-35222.682
-36320.564
-37525.91
-38827.405
-40199.369
-32955.999
-33140.56
-33540.424
-34133.726
-34902.068
-35824.964
-36868.478
-38012.232
-39248.815
-40554.223
-33697.933
-33872.897
-34251.966
-34814.262
-35542.313
-36415.844
-37412.744
-38503.992
-39674.607
-40913.62
-34430.511
-34596.119
-34955.039
-35487.554
-36177.643
-37006.715
-37955.573
-38992.28
-40100.102
-41274.693
-35153.015
-35309.506
-35648.778
-36152.141
-36804.726
-37588.834
-38485.582
-39475.06
-40530.508
-41639.722
-35864.74
-36012.422
-36332.723
-36808.012
-37424.725
-38166.458
-39015.914
-39956.109
-40957.364
-42005.484
-36565.776
-36704.927
-37006.806
-37454.7
-38036.075
-38735.473
-39537.049
-40424.073
-41376.964
-42372.851
-37254.792
-37385.654
-37669.635
-38091.023
-38638.204
-39297.11
-40052.55
-40889.325
-41792.095
-42734.336
-37929.696
-38052.584
-38319.279
-38715.113
-39229.318
-39849.086
-40559.798
-41346.988
-42196.147
-43092.379
-38589.054
-38704.252
-38954.301
-39325.555
-39808.077
-40390.289
-41058.535
-41799.125
-42597.856
-43439.908
-39231.783
-39339.567
-39573.586
-39921.213
-40373.232
-40919.186
-41546.382
-42241.69
-42992.677
-43787.81
-39856.798
-39957.513
-40176.255
-40501.371
-40924.307
-41435.502
-42023.558
-42676.182
-43381.84
-44129.673
-40462.908
-40556.858
-40760.961
-41064.485
-41459.47
-41937.143
-42487.404
-43098.902
-43760.549
-44461.962
-41049.285
-41136.74
-41326.774
-41609.476
-41977.483
-42422.793
-42936.484
-43508.161
-44127.261
-44784.148
-41616.138
-41697.482
-41874.265
-42137.35
-42479.996
-42894.949
-43374.153
-43908.324
-44487.787
-45103.348
-42163.684
-42239.293
-42403.641
-42648.317
-42967.224
-43353.738
-43800.53
-44299.476
-44841.722
-45418.628
-42692.684
-42762.901
-42915.616
-43143.179
-43439.99
-43799.989
-44216.517
-44682.375
-45189.622
-45730.247
-43204.073
-43269.261
-43411.221
-43622.893
-43899.139
-44234.406
-44622.667
-45057.466
-45531.776
-46038.241
-43699.067
-43759.594
-43891.55
-44088.418
-44345.447
-44657.607
-45019.443
-45425.117
-45868.311
-46342.408
-44178.713
-44234.877
-44357.458
-44540.455
-44779.5
-45070.072
-45407.157
-45785.418
-46199.185
-46642.584
-44643.776
-44695.859
-44809.655
-44979.664
-45201.862
-45472.192
-45786.012
-46138.445
-46524.423
-46938.587
-45094.929
-45143.192
-45248.755
-45406.579
-45612.958
-45864.208
-46156.094
-46484.168
-46843.844
-47230.265
-45532.676
-45577.357
-45675.188
-45821.549
-46013.031
-46246.272
-46517.485
-46822.579
-47157.35
-47517.448
-45957.397
-45998.721
-46089.291
-46224.869
-46402.305
-46618.554
-46870.269
-47153.65
-47464.843
-47799.983
-46369.35
-46407.525
-46491.209
-46616.582
-46780.817
-46981.084
-47214.373
-47477.268
-47766.23
-48077.729
-46768.528
-46803.738
-46880.92
-46996.702
-47148.535
-47333.791
-47549.73
-47793.331
-48061.329
-48350.494
-47154.975
-47187.405
-47258.496
-47365.295
-47505.501
-47676.662
-47876.298
-48101.73
-48350.019
-48618.181
-47528.812
-47558.65
-47624.067
-47722.474
-47851.8
-48009.753
-48194.107
-48402.468
-48632.238
-48880.668
-47890.269
-47917.706
-47977.852
-48068.43
-48187.588
-48333.189
-48503.243
-48695.613
-48907.992
-49137.926
-48239.689
-48264.902
-48320.146
-48403.424
-48513.058
-48647.128
-48803.846
-48981.281
-49177.374
-49389.964
-48577.369
-48600.517
-48651.211
-48727.635
-48828.372
-48951.75
-49096.064
-49259.585
-49440.486
-49636.843
-48903.636
-48924.862
-48971.33
-49041.39
-49133.901
-49247.364
-49380.16
-49530.744
-49697.498
-49878.701
-49218.973
-49238.424
-49280.993
-49345.189
-49430.103
-49534.364
-49656.469
-49795.043
-49948.646
-50115.748
-49523.943
-49541.76
-49580.739
-49639.542
-49717.445
-49813.176
-49925.376
-50052.822
-50194.22
-50348.215
-49819.126
-49835.437
-49871.118
-49924.966
-49996.332
-50084.145
-50187.231
-50304.402
-50434.495
-50576.33
-50105.057
-50119.982
-50152.637
-50201.922
-50267.247
-50347.78
-50442.44
-50550.113
-50669.767
-50800.349
-50382.344
-50395.998
-50425.881
-50470.971
-50530.756
-50604.598
-50691.486
-50790.4
-50900.424
-51020.601
-50651.608
-50664.099
-50691.444
-50732.699
-50787.419
-50855.084
-50934.807
-51025.677
-51126.837
-51237.43
-50913.483
-50924.911
-50949.934
-50987.682
-51037.773
-51099.751
-51172.902
-51256.39
-51349.407
-51451.198
-51168.644
-51179.102
-51202.006
-51236.555
-51282.424
-51339.213
-51406.368
-51483.097
-51568.658
-51662.376
-51417.853
-51427.43
-51448.408
-51480.057
-51522.097
-51574.173
-51635.833
-51706.378
-51785.12
-51871.448
-51661.946
-51670.724
-51689.958
-51718.986
-51757.549
-51805.343
-51861.973
-51926.88
-51999.419
-52079.016
-51901.82
-51909.877
-51927.534
-51954.191
-51989.607
-52033.522
-52085.597
-52145.397
-52212.301
-52285.759
-52138.447
-52145.853
-52162.088
-52186.606
-52219.185
-52259.606
-52307.573
-52362.717
-52424.498
-52492.4
-52372.864
-52379.686
-52394.642
-52417.235
-52447.262
-52484.538
-52528.805
-52579.732
-52636.889
-52699.776
-52606.197
-52612.495
-52626.304
-52647.172
-52674.911
-52709.369
-52750.316
-52797.458
-52850.458
-52908.823
-52839.663
-52845.493
-52858.278
-52877.605
-52903.303
-52935.242
-52973.221
-53016.976
-53066.211
-53120.501
-53074.599
-53080.014
-53091.89
-53109.848
-53133.735
-53163.434
-53198.764
-53239.491
-53285.348
-53335.985
-53312.403
-53317.449
-53328.517
-53345.258
-53367.535
-53395.241
-53428.217
-53466.252
-53509.105
-53556.489
-53554.633
-53559.353
-53569.71
-53585.377
-53606.232
-53632.18
-53663.074
-53698.725
-53738.91
-53783.382
-53802.975
-53807.409
-53817.138
-53831.861
-53851.464
-53875.863
-53904.921
-53938.461
-53976.281
-54018.15
-54059.263
-54063.446
-54072.626
-54086.52
-54105.024
-54128.062
-54155.502
-54187.179
-54222.903
-54262.46
-54325.491
-54329.455
-54338.155
-54351.324
-54368.868
-54390.712
-54416.725
-54446.753
-54480.619
-54518.118
-54603.808
-54607.581
-54615.86
-54628.394
-54645.1
-54665.89
-54690.64
-54719.203
-54751.41
-54787.067
-54896.515
-54900.119
-54908.029
-54920.005
-54935.969
-54955.822
-54979.441
-55006.688
-55037.398
-55071.382
-55206.054
-55209.508
-55217.092
-55228.576
-55243.867
-55262.863
-55285.449
-55311.487
-55340.816
-55373.25
-55534.998
-55538.318
-55545.602
-55556.619
-55571.272
-55589.46
-55611.07
-55635.963
-55663.979
-55694.929
-55885.934
-55889.118
-55896.099
-55906.651
-55920.675
-55938.072
-55958.724
-55982.492
-56009.211
-56038.69
-56261.319
-56264.362
-56271.032
-56281.108
-56294.492
-56311.082
-56330.757
-56353.373
-56378.76
-56406.718
-56663.442
-56666.335
-56672.675
-56682.247
-56694.952
-56710.684
-56729.317
-56750.7
-56774.657
-56800.976
-57094.274
-57097.001
-57102.975
-57111.989
-57123.941
-57138.719
-57156.194
-57176.205
-57198.565
-57223.041
-57555.255
-57557.794
-57563.351
-57571.727
-57582.819
-57596.509
-57612.66
-57631.102
-57651.638
-57674.012
-58047.058
-58049.375
-58054.445
-58062.078
-58072.166
-58084.589
-58099.197
-58115.815
-58134.228
-58154.186
-58569.318
-58571.376
-58575.873
-58582.631
-58591.54
-58602.473
-58615.274
-58629.756
-58645.689
-58662.861
-59120.347
-59122.1
-59125.926
-59131.661
-59139.194
-59148.392
-59159.093
-59171.101
-59184.175
-59198.142
-59696.933
-59698.335
-59701.385
-59705.94
-59711.886
-59719.089
-59727.381
-59736.56
-59746.387
-59756.708
-60294.187
-60295.189
-60297.363
-60300.582
-60304.74
-60309.698
-60315.287
-60321.304
-60327.507
-60333.746
-60905.533
-60906.095
-60907.3
-60909.049
-60911.238
-60913.732
-60916.364
-60918.932
-60921.2
-60922.988
-61522.967
-61523.057
-61523.224
-61523.399
-61523.484
-61523.353
-61522.844
-61521.764
-61519.888
-61516.969
-62137.558
-62137.156
-62136.241
-62134.777
-62132.677
-62129.822
-62126.061
-62121.215
-62115.072
-62107.39
-62740.216
-62739.313
-62737.301
-62734.175
-62729.862
-62724.252
-62717.21
-62708.571
-62698.14
-62685.699
-63322.634
-63321.236
-63318.138
-63313.368
-63306.866
-63298.536
-63288.256
-63275.877
-63261.225
-63244.102
-63878.141
-63876.266
-63872.119
-63865.763
-63857.148
-63846.192
-63832.786
-63816.798
-63798.074
-63776.436
-64402.19
-64399.864
-64394.726
-64386.871
-64376.259
-64362.821
-64346.459
-64327.057
-64304.476
-64278.559
-64892.418
-64889.672
-64883.612
-64874.361
-64861.891
-64846.14
-64827.022
-64804.433
-64778.248
-64748.326
-65348.425
-65345.288
-65338.372
-65327.827
-65313.633
-65295.736
-65274.062
-65248.516
-65218.986
-65185.343
-65771.525
-65768.022
-65760.301
-65748.535
-65732.716
-65712.8
-65688.723
-65660.405
-65627.749
-65590.637
-66163.396
-66159.559
-66151.104
-66138.226
-66120.922
-66099.154
-66072.863
-66041.974
-66006.395
-65966.023
-66526.063
-66521.92
-66512.794
-66498.899
-66480.236
-66456.771
-66428.448
-66395.196
-66356.929
-66313.545
-66861.758
-66857.334
-66847.59
-66832.757
-66812.84
-66787.808
-66757.607
-66722.167
-66681.406
-66635.224
-67172.722
-67168.037
-67157.718
-67142.011
-67120.926
-67094.432
-67062.477
-67024.994
-66981.901
-66933.102
-67461.084
-67456.153
-67445.295
-67428.768
-67406.587
-67378.721
-67345.12
-67305.718
-67260.433
-67209.172
-67728.846
-67723.683
-67712.316
-67695.017
-67671.801
-67642.64
-67607.485
-67566.27
-67518.915
-67465.327
-67977.868
-67972.486
-67960.637
-67942.606
-67918.41
-67888.023
-67851.395
-67808.461
-67759.142
-67703.346
-68209.862
-68204.272
-68191.966
-68173.24
-68148.114
-68116.562
-68078.535
-68033.968
-67982.783
-67924.887
-68426.405
-68420.618
-68407.876
-68388.489
-68362.478
-68329.819
-68290.461
-68244.341
-68191.381
-68131.487
-68628.968
-68622.991
-68609.833
-68589.814
-68562.959
-68529.241
-68488.615
-68441.015
-68386.364
-68324.568
-68818.897
-68812.74
-68799.186
-68778.566
-68750.904
-68716.178
-68674.34
-68625.327
-68569.061
-68505.451
-68997.412
-68991.084
-68977.153
-68955.961
-68927.535
-68891.85
-68848.86
-68798.502
-68740.699
-68675.361
-69165.631
-69159.141
-69144.853
-69123.118
-69093.965
-69057.37
-69013.287
-68961.653
-68902.391
-68835.411
-69324.611
-69317.965
-69303.336
-69281.083
-69251.236
-69213.774
-69168.649
-69115.802
-69055.154
-68986.616
-69475.327
-69468.534
-69453.582
-69430.838
-69400.333
-69362.046
-69315.932
-69261.929
-69199.96
-69129.936
-69618.621
-69611.689
-69596.43
-69573.221
-69542.094
-69503.027
-69455.977
-69400.881
-69337.663
-69266.233
-69755.327
-69748.262
-69732.711
-69709.057
-69677.335
-69637.525
-69589.582
-69533.446
-69469.04
-69396.278
-69886.173
-69878.982
-69863.155
-69839.083
-69806.799
-69766.286
-69717.499
-69660.377
-69594.845
-69520.814
-70011.803
-70004.493
-69988.404
-69963.933
-69931.117
-69889.938
-69840.352
-69782.299
-69715.704
-69640.48
-70132.831
-70125.41
-70109.076
-70084.233
-70050.917
-70009.111
-69958.77
-69899.834
-69832.228
-69755.865
-70249.486
-70241.995
-70225.489
-70200.341
-70166.588
-70124.218
-70073.189
-70013.444
-69944.907
-69867.491
-70361.982
-70354.442
-70337.827
-70312.507
-70278.466
-70235.645
-70184.025
-70123.555
-70054.166
-69975.775
-70470.778
-70463.195
-70446.484
-70421.019
-70386.776
-70343.659
-70291.573
-70230.496
-70160.369
-70081.115
-70576.434
-70568.813
-70552.02
-70526.427
-70492.011
-70448.669
-70396.259
-70334.686
-70263.919
-70183.892
-70679.363
-70671.709
-70654.842
-70629.136
-70594.567
-70551.03
-70498.372
-70436.424
-70365.126
-70284.436
-70780.019
-70772.337
-70755.41
-70729.61
-70694.914
-70651.215
-70598.358
-70536.151
-70464.422
-70383.164
-70878.847
-70871.141
-70854.158
-70828.274
-70793.463
-70749.615
-70696.577
-70634.148
-70562.117
-70480.392
-70976.249
-70968.521
-70951.491
-70925.534
-70890.624
-70846.652
-70793.461
-70730.851
-70658.589
-70576.468
-71072.567
-71064.819
-71047.744
-71021.719
-70986.715
-70942.624
-70889.286
-70826.501
-70754.033
-70671.636
-71168.134
-71160.369
-71143.256
-71117.172
-71082.089
-71037.895
-70984.432
-70921.497
-70848.855
-70766.238
-71263.238
-71255.458
-71238.312
-71212.177
-71177.024
-71132.741
-71079.167
-71016.099
-70943.301
-70860.494
-71358.162
-71350.368
-71333.189
-71307.004
-71271.784
-71227.417
-71173.741
-71110.552
-71037.61
-70954.64
-71453.192
-71445.384
-71428.178
-71401.949
-71366.67
-71322.228
-71268.459
-71205.16
-71132.092
-71048.983
-71548.525
-71540.706
-71523.473
-71497.206
-71461.873
-71417.361
-71363.507
-71300.107
-71226.917
-71143.668
-71644.384
-71636.553
-71619.294
-71592.986
-71557.6
-71513.022
-71459.089
-71395.596
-71322.299
-71238.927
-71740.998
-71733.156
-71715.874
-71689.531
-71654.096
-71609.456
-71555.448
-71491.866
-71418.469
-71334.986
-71838.505
-71830.654
-71813.351
-71786.974
-71751.495
-71706.799
-71652.722
-71589.059
-71515.568
-71431.976
-71937.117
-71929.254
-71911.925
-71885.511
-71849.981
-71805.222
-71751.071
-71687.323
-71613.738
-71530.04
-72036.963
-72029.09
-72011.739
-71985.291
-71949.716
-71904.9
-71850.681
-71786.855
-71713.179
-71629.38
-72138.196
-72130.312
-72112.937
-72086.452
-72050.828
-72005.954
-71951.667
-71887.765
-71814.007
-71730.119
-72240.957
-72233.062
-72215.662
-72189.14
-72153.467
-72108.53
-72054.168
-71990.178
-71916.321
-71832.323
-72345.338
-72337.43
-72320.003
-72293.44
-72257.713
-72212.71
-72158.273
-72094.199
-72020.248
-71936.148
-72451.515
-72443.595
-72426.14
-72399.535
-72363.752
-72318.679
-72264.158
-72199.986
-72125.929
-72041.714
-72559.542
-72551.608
-72534.123
-72507.472
-72471.629
-72426.484
-72371.88
-72307.616
-72233.456
-72149.128
-72669.581
-72661.632
-72644.114
-72617.413
-72581.504
-72536.275
-72481.568
-72417.186
-72342.894
-72258.424
-72781.654
-72773.688
-72756.132
-72729.375
-72693.392
-72648.073
-72593.262
-72528.762
-72454.34
-72369.728
-72895.921
-72887.938
-72870.346
-72843.533
-72807.475
-72762.063
-72707.142
-72642.516
-72567.952
-72483.184
-73012.519
-73004.518
-72986.885
-72960.011
-72923.871
-72878.358
-72823.316
-72758.552
-72683.833
-72598.892
-73131.547
-73123.525
-73105.847
-73078.903
-73042.67
-72997.04
-72941.857
-72876.925
-72802.014
-72716.859
-73253.001
-73244.955
-73227.223
-73200.198
-73163.856
-73118.092
-73062.749
-72997.636
-72922.523
-72837.147
-73376.955
-73368.886
-73351.102
-73323.998
-73287.551
-73241.653
-73186.15
-73120.845
-73045.509
-72959.876
-73503.548
-73495.45
-73477.603
-73450.404
-73413.83
-73367.773
-73312.08
-73246.555
-73170.97
-73085.062
-73632.735
-73624.607
-73606.697
-73579.402
-73542.701
-73496.488
-73440.607
-73374.861
-73299.02
-73212.817
-73764.722
-73756.563
-73738.583
-73711.18
-73674.332
-73627.933
-73571.825
-73505.814
-73429.668
-73343.122
-73899.428
-73891.232
-73873.173
-73845.65
-73808.642
-73762.041
-73705.695
-73639.408
-73562.95
-73476.052
-74036.955
-74028.724
-74010.587
-73982.945
-73945.775
-73898.97
-73842.374
-73775.787
-73698.978
-73611.676
-74177.376
-74169.104
-74150.875
-74123.093
-74085.735
-74038.694
-73981.812
-73914.893
-73837.701
-73749.969
-74320.573
-74312.273
-74293.955
-74266.033
-74228.486
-74181.208
-74124.042
-74056.787
-73979.205
-73891.023
-74466.719
-74458.408
-74440.008
-74411.943
-74374.195
-74326.656
-74269.166
-74201.527
-74123.498
-74034.807
-74615.674
-74607.34
-74588.885
-74560.682
-74522.724
-74474.908
-74417.078
-74349.035
-74270.542
-74181.326
-74767.499
-74759.14
-74740.633
-74712.296
-74674.136
-74626.05
-74567.883
-74499.433
-74420.459
-74330.685
-74922.454
-74914.061
-74895.483
-74866.989
-74828.592
-74780.195
-74721.642
-74652.733
-74573.225
-74482.841
-75080.342
-75071.904
-75053.232
-75024.587
-74985.951
-74937.233
-74878.281
-74808.897
-74728.842
-74637.839
-75241.267
-75232.784
-75214.016
-75185.235
-75146.371
-75097.339
-75037.986
-74968.111
-74887.467
-74795.769
-75405.576
-75397.03
-75378.128
-75349.154
-75309.994
-75260.569
-75200.726
-75130.262
-75048.931
-74956.443
-75572.873
-75564.251
-75545.189
-75515.98
-75476.479
-75426.609
-75366.22
-75295.109
-75213.027
-75119.686
-75742.896
-75734.191
-75714.95
-75685.48
-75645.608
-75595.263
-75534.295
-75462.5
-75379.631
-75285.401
-75915.468
-75906.673
-75887.236
-75857.483
-75817.235
-75766.404
-75704.841
-75632.346
-75548.673
-75453.536
-76090.587
-76081.698
-76062.061
-76032.015
-75991.395
-75940.081
-75877.928
-75804.741
-75720.274
-75624.244
-76268.485
-76259.503
-76239.669
-76209.335
-76168.353
-76116.576
-76053.855
-75979.985
-75894.713
-75797.743
-76449.84
-76440.759
-76420.71
-76390.056
-76348.656
-76296.331
-76232.936
-76158.264
-76072.059
-75974.025
-76634.377
-76625.179
-76604.873
-76573.839
-76531.946
-76478.997
-76414.848
-76339.288
-76252.064
-76152.876
-76821.748
-76812.42
-76791.835
-76760.387
-76717.956
-76664.335
-76599.379
-76522.877
-76434.576
-76334.175
-77011.726
-77002.262
-76981.381
-76949.493
-76906.492
-76852.163
-76786.362
-76708.878
-76619.456
-76517.799
-77204.178
-77194.572
-77173.383
-77141.038
-77097.443
-77042.388
-76975.721
-76897.233
-76806.67
-76703.733
-77399.096
-77389.346
-77367.843
-77335.031
-77290.83
-77235.046
-77167.509
-77088.013
-76996.307
-76892.096
-77596.708
-77586.816
-77565.006
-77531.739
-77486.95
-77430.452
-77362.057
-77281.551
-77188.671
-77083.109
-77797.575
-77787.535
-77765.401
-77731.643
-77686.199
-77628.89
-77559.518
-77477.867
-77383.671
-77276.622
-78001.334
-77991.13
-77968.637
-77934.338
-77888.177
-77829.982
-77759.55
-77676.663
-77581.057
-77472.422
-78207.631
-78197.253
-78174.378
-78139.503
-78092.581
-78033.447
-77961.894
-77877.704
-77780.614
-77670.316
-78416.21
-78405.65
-78382.377
-78346.901
-78299.184
-78239.069
-78166.348
-78080.805
-77982.175
-77870.154
-78626.89
-78616.142
-78592.457
-78556.362
-78507.824
-78446.696
-78372.771
-78285.834
-78185.623
-78071.834
-78839.562
-78828.622
-78804.516
-78767.787
-78718.411
-78656.248
-78581.096
-78492.74
-78390.921
-78275.335
-79054.23
-79043.096
-79018.566
-78981.198
-78930.975
-78867.768
-78791.381
-78701.602
-78598.172
-78480.78
-79271.129
-79259.805
-79234.857
-79196.857
-79145.792
-79081.537
-79003.896
-78912.646
-78807.521
-78688.214
-79490.405
-79478.88
-79453.49
-79414.818
-79362.856
-79297.479
-79218.496
-79125.678
-79018.762
-78897.44
-79711.725
-79699.989
-79674.135
-79634.76
-79581.858
-79515.307
-79434.917
-79340.462
-79231.677
-79108.259
-79934.821
-79922.866
-79896.532
-79856.426
-79802.548
-79734.779
-79652.932
-79556.781
-79446.062
-79320.475
-80159.467
-80147.286
-80120.455
-80079.597
-80024.713
-79955.688
-79872.338
-79774.438
-79661.727
-79533.907
-80385.465
-80373.052
-80345.712
-80304.08
-80248.163
-80177.847
-80092.954
-79993.258
-79878.502
-79748.39
-80612.646
-80599.996
-80572.134
-80529.711
-80472.735
-80401.098
-80314.625
-80213.091
-80096.242
-79963.784
-80840.877
-80827.986
-80799.592
-80756.361
-80698.307
-80625.323
-80537.238
-80433.831
-80314.849
-80180.003
-81070.093
-81056.956
-81028.023
-80983.975
-80924.829
-80850.483
-80760.767
-80655.459
-80534.309
-80397.024
-81300.355
-81286.968
-81257.486
-81212.602
-81152.335
-81076.585
-80985.183
-80877.909
-80754.515
-80614.711
-81531.489
-81517.844
-81487.792
-81442.044
-81380.62
-81303.422
-81210.283
-81100.987
-80975.284
-80832.89
-81763.279
-81749.368
-81718.732
-81672.095
-81609.483
-81530.798
-81435.876
-81324.503
-81196.432
-81051.38
-81995.542
-81981.359
-81950.124
-81902.577
-81838.748
-81758.541
-81661.793
-81548.294
-81417.8
-81270.033
-82228.151
-82213.69
-82181.844
-82133.37
-82068.299
-81986.537
-81887.925
-81772.255
-81639.285
-81488.742
-82461.01
-82446.263
-82413.789
-82364.361
-82298.013
-82214.656
-82114.131
-81996.236
-81860.731
-81707.345
-82693.917
-82678.878
-82645.76
-82595.355
-82527.701
-82442.709
-82340.227
-82220.053
-82081.951
-81925.655
-82926.677
-82911.338
-82877.561
-82826.156
-82757.165
-82670.501
-82566.014
-82443.507
-82302.745
-82143.467
-83159.102
-83143.456
-83109.006
-83056.578
-82986.218
-82897.842
-82791.304
-82666.41
-82522.931
-82360.616
-83391.055
-83375.096
-83339.958
-83286.485
-83214.728
-83124.606
-83015.976
-82888.651
-82742.407
-82577.001
-83622.413
-83606.134
-83570.291
-83515.748
-83442.562
-83350.657
-83239.892
-83110.087
-82961.024
-82792.464
-83852.984
-83836.378
-83799.815
-83744.18
-83669.536
-83575.809
-83462.864
-83330.526
-83178.581
-83006.799
-84082.568
-84065.626
-84028.328
-83971.578
-83895.442
-83799.853
-83684.679
-83549.748
-83394.854
-83219.771
-84310.954
-84293.67
-84255.619
-84197.728
-84120.067
-84022.571
-83905.115
-83767.531
-83609.623
-83431.18
-84537.97
-84520.336
-84481.517
-84422.459
-84343.241
-84243.803
-84124.024
-83983.749
-83822.792
-83640.951
-84763.494
-84745.503
-84705.9
-84645.655
-84564.853
-84463.439
-84341.303
-84198.296
-84034.242
-83848.951
-84987.358
-84969.005
-84928.605
-84867.152
-84784.738
-84681.317
-84556.782
-84410.994
-84243.787
-84054.98
-85209.368
-85190.644
-85149.432
-85086.748
-85002.691
-84897.221
-84770.238
-84621.61
-84451.18
-84258.776
-85429.298
-85410.197
-85368.155
-85304.213
-85218.477
-85110.911
-84981.424
-84829.889
-84656.16
-84460.084
-85646.924
-85627.436
-85584.545
-85519.317
-85431.864
-85322.159
-85190.12
-85035.636
-84858.578
-84658.812
-85862.097
-85842.217
-85798.464
-85731.93
-85642.739
-85530.872
-85396.259
-85238.801
-85058.386
-84854.897
-86074.701
-86054.423
-86009.798
-85941.944
-85850.994
-85736.941
-85599.723
-85439.256
-85255.441
-85048.177
-86284.581
-86263.9
-86218.39
-86149.197
-86056.464
-85940.19
-85800.327
-85636.801
-85449.528
-85238.42
-86491.525
-86470.433
-86424.022
-86353.465
-86258.913
-86140.375
-85997.813
-85831.163
-85640.354
-85425.312
-86695.261
-86673.75
-86626.417
-86554.463
-86458.05
-86337.194
-86191.865
-86022.016
-85827.601
-85608.581
-86895.527
-86873.587
-86825.315
-86751.94
-86653.636
-86530.434
-86382.324
-86209.279
-86011.274
-85788.294
-87092.112
-87069.739
-87020.516
-86945.704
-86845.492
-86719.925
-86569.008
-86392.735
-86191.101
-85964.115
-87285.16
-87262.359
-87212.198
-87135.969
-87033.872
-86905.967
-86752.274
-86572.803
-86367.571
-86136.608
-87474.495
-87451.258
-87400.142
-87322.468
-87218.449
-87088.157
-86931.627
-86748.885
-86539.965
-86304.919
-87659.896
-87636.217
-87584.13
-87504.987
-87399.013
-87266.292
-87106.872
-86920.794
-86708.109
-86468.889
-87841.018
-87816.885
-87763.802
-87683.152
-87575.17
-87439.953
-87277.56
-87088.055
-86871.527
-86628.088
-88017.4
-87992.802
-87938.697
-87856.504
-87746.476
-87608.73
-87443.35
-87250.428
-87030.073
-86782.424
-88188.766
-88163.704
-88108.582
-88024.853
-87912.787
-87772.518
-87604.15
-87407.795
-87183.588
-86931.691
-88354.975
-88329.444
-88273.295
-88188.015
-88073.889
-87931.063
-87759.663
-87559.823
-87331.718
-87075.56
-88515.614
-88489.605
-88432.409
-88345.551
-88229.337
-88083.94
-87909.514
-87706.228
-87474.281
-87213.913
-88670.333
-88643.856
-88585.636
-88497.233
-88378.973
-88231.047
-88053.633
-87846.922
-87611.141
-87346.554
-88819.1
-88792.156
-88732.91
-88642.959
-88522.644
-88372.174
-88191.744
-87981.566
-87741.9
-87473.066
-88961.48
-88934.054
-88873.754
-88782.215
-88659.802
-88506.749
-88323.283
-88109.656
-87866.159
-87593.134
-89096.712
-89068.817
-89007.49
-88914.403
-88789.94
-88634.355
-88447.899
-88230.86
-87983.576
-87706.429
-89224.469
-89196.107
-89133.76
-89039.14
-88912.655
-88754.587
-88565.216
-88344.857
-88093.867
-87812.666
-89344.376
-89315.561
-89252.222
-89156.105
-89027.636
-88867.123
-88674.884
-88451.269
-88196.674
-87911.551
-89455.859
-89426.605
-89362.305
-89264.746
-89134.38
-88971.535
-88776.545
-88549.784
-88291.682
-88002.742
-89558.687
-89529.002
-89463.763
-89364.795
-89232.574
-89067.457
-88869.809
-88640.035
-88378.591
-88085.987
-89652.267
-89622.186
-89556.078
-89455.801
-89321.844
-89154.579
-88954.39
-88721.715
-88457.054
-88160.95
-89736.371
-89705.906
-89638.958
-89537.419
-89401.803
-89232.504
-89029.934
-88794.547
-88526.846
-88227.4
-89810.727
-89779.907
-89712.184
-89609.474
-89472.299
-89301.071
-89096.229
-88858.257
-88587.689