/*--------------------------------*- C++ -*----------------------------------*\
  =========                 |
  \\      /  F ield         | OpenFOAM: The Open Source CFD Toolbox
   \\    /   O peration     | Website:  https://openfoam.org
    \\  /    A nd           | Version:  7
     \\/     M anipulation  |
\*---------------------------------------------------------------------------*/
FoamFile
{
    version     2.0;
    format      ascii;
    class       volScalarField;
    location    "80000";
    object      epsilon;
}
// * * * * * * * * * * * * * * * * * * * * * * * * * * * * * * * * * * * * * //

dimensions      [0 2 -3 0 0 0 0];

internalField   nonuniform List<scalar> 
87000
(
53232.807
54070.519
58473.352
65789.072
76799.807
96982.996
132905.92
248160.4
861355.82
1245483
99673.979
108902.45
129429.41
162044.58
210555.57
288681.97
428529.61
782030.46
2109463
2944779.3
147906.05
162506
195929.13
251713.73
339285.8
483249.1
747779.9
1351326.7
2985480.9
3968780
197033.96
216019.28
260517.59
337230.15
462099.17
672164.35
1059937.6
1876519.5
3594093.7
4642607.5
246817.03
269649.37
324002.2
419665.43
578891.08
849929.88
1343804.6
2304263.4
3972436.3
5010869.4
296457.65
322764.72
385960.44
498541.58
688086.38
1011237.9
1586049.4
2620151.7
4178132.4
5166554.7
345102.34
374529.36
445548.49
572823.92
787865.4
1152438.2
1781823.6
2836122.5
4262822.9
5186440.4
391915.92
424085.3
501864.06
641448.61
877063.76
1272224
1933665.6
2969818.4
4264035.2
5119612.7
436146.65
470660.53
554114.01
703628.79
955052.83
1370626.5
2043101.8
3036819.3
4206736.9
4994345.9
477177.02
513625.54
601632.47
758822.87
1021312.1
1447768.3
2114110.5
3054095.1
4110539.9
4832290.4
514519.59
552497.89
643920.74
806700.16
1075961.5
1505597.4
2155969.8
3036753.2
3991182.9
4651823.6
547869.73
587002.46
680840.44
847284.64
1119721.2
1546867.6
2174911.4
2995254.3
3858692.7
4463624.1
577137.75
617101.22
712579.03
881099.44
1154256.9
1576170.7
2176614.9
2937605.4
3720024.5
4273943
602281.75
642742.38
739306.72
908713.3
1180607.1
1592549.6
2162727.9
2867531.1
3578061.4
4085538.9
623353.08
664024.08
761165.38
930284.2
1198567.5
1596386.7
2137139.4
2789516.5
3436300.4
3901883.6
640594.46
681310.84
778485.76
946322.79
1209457.4
1592783.4
2104167.6
2707964.9
3298118.2
3725761.3
654345.16
695001.51
791733.21
957589.6
1214661.6
1583105.9
2065656.6
2624634
3164248.8
3557593.5
664924.43
705415.98
801370.6
964780.98
1215236
1568618.4
2023330.3
2541011.2
3035275
3397809.1
672633.63
712856.92
807841.43
968518.02
1212166.9
1550737.5
1978773.2
2458458.4
2912023.5
3246650.5
677895.03
717813.71
811794.91
969957.94
1208266.5
1530711.4
1933036.3
2377685.4
2794670
3103621.2
681059.46
720660.01
813672.28
969272.02
1200323.7
1506905.4
1885255.1
2297788.3
2681794.7
2967371.3
682199.09
721537.62
813363.97
965512.49
1187245.6
1480271
1836221.9
2219386.5
2573551.8
2838076.4
681622.93
720707.48
811126.56
959507.56
1173020.3
1452646.8
1787500.7
2143728.2
2470823.3
2716236.2
679777.14
718483.55
807367.63
951929.68
1157617.5
1424087.6
1739070.9
2070561.9
2373240.7
2601272.7
676871.13
715111.91
802381.56
943107.62
1141183
1394863.8
1691116
1999799.2
2280396.5
2492544.6
673102.72
710823.66
796419.37
933276.12
1123854.2
1365153.4
1643764.2
1931406.7
2191864.4
2389492.3
668660.95
705814.91
789641.09
922593.15
1105784.6
1335140.4
1597166.7
1865511.9
2107481.5
2291791
663701.39
700229.55
782241.67
911238.75
1087155.7
1305015.7
1551486.9
1801987.9
2026993.9
2199083.3
658351.12
694230.33
774367.15
899329.2
1068074
1274885.6
1506704.8
1740585.6
1950173.8
2111012.9
652721.51
687913.91
766051.29
886924.91
1048608.3
1244791
1462751.3
1681278.7
1876761
2027277.7
646941.06
681348.21
757377.59
874121.16
1028834.1
1214789.5
1419698.4
1624144.3
1806569.4
1947622.9
641043.21
674580.44
748408.6
860976.57
1008843.6
1185023.6
1377754.2
1569071.3
1739400.8
1871717.9
635034.34
667652.59
739205.31
847558.73
988720.25
1155531.3
1336772.1
1515771.2
1675034.3
1799271.9
628964.17
660607.29
729782.47
833885.43
968460.52
1126222.2
1296592.9
1464230.8
1613362.7
1730122.5
622834.73
653437.7
720155.32
819992.72
948124.79
1097208.2
1257405.8
1414557.7
1554246.5
1664059.9
616614.9
646141.31
710352.31
805930.49
927767.17
1068614.9
1219252.7
1366565.4
1497430.8
1600818.2
610258.72
638709.97
700375.93
791719.11
907368.04
1040350.7
1181931.4
1320011.5
1442747.8
1540216.2
603763.21
631129.57
690228.06
777340.14
886979.8
1012382.9
1145419.7
1274952.4
1390215.3
1482163.6
597156.87
623412.26
679917.21
762794.78
866663.45
984870.81
1109900.8
1231474.4
1339743.9
1426513.5
590453.71
615543.66
669407.44
748171.15
846420.3
957795.39
1075274
1189365.5
1291090.7
1373041.6
583556.67
607451.26
658714.25
733473.86
826269.04
931063.84
1041397.3
1148487.2
1244153.9
1321613.2
576438.73
599182.44
647901.24
718667.48
806229.95
904762.83
1008335.9
1108863.8
1198873.6
1272142.2
569221.51
590809.52
636982.51
703859.16
786309.05
878872.9
976066.64
1070444.6
1155152.7
1224495.6
561816.29
582256.14
625942.31
688956.83
766163.53
852759.04
943977.97
1032682.5
1112507.5
1178244.7
553907.55
573135.39
614031.3
672486.84
742637.72
825785.63
912071.04
995764.75
1071189.4
1133640.7
545489.22
563425.35
601452.75
655734.64
721761
801231.42
882297.05
961060.18
1032228.9
1091477.8
536918.64
553752.35
589534.1
640948.66
705078.66
778396.12
854006.32
927845.43
994868.23
1051016.4
528359.13
544226.14
577989.36
626572.8
687232.24
755388.86
825952.49
895170.86
958303.25
1011547.7
519764.39
534688.99
566463.64
612207.4
669139.69
732720.69
798579.22
863414.24
922842.94
973307.68
511117.31
525110.5
554945.02
597814.44
651048.46
710093.79
771309.85
832037.14
888037.89
935936.72
502179.88
515217.8
542999.78
582776.62
631700.22
684582.49
743496.07
801111.55
854184.63
899794.61
492857.32
504879.4
530554.4
567234.38
612268.73
661945.04
718292.67
772358.84
822403.02
865677.19
483421.75
494585.27
518462.59
552715.05
595201.56
643493.74
694971.11
745102.63
791977.67
832870.6
474006.85
484430.42
506741.95
538867.31
578748.45
624004.18
671211.92
717587.2
761511.6
800220.06
464426.25
474125.17
494886.44
524753.7
561586.28
603000.19
644919.17
689651.46
731454.88
768341.08
454650.09
463610.46
482781.06
510339.45
544197.02
582243.46
621597.25
664117.87
703074.99
737943.79
444730.6
452996.11
470686.81
496182.68
527573.28
563099.81
600659.53
637486.24
674958.32
708304.62
434693.32
442316.65
458644.51
482201.9
511243.46
544140.22
578841.87
613230.73
649050.1
680278.91
424677.7
431724.64
446833.69
468634.8
495612.11
526308.79
559037.07
592308.54
624036.53
653008.85
414663.09
421183.49
435182.19
455373.51
480433.49
508913.37
539269.57
569716.47
597754.61
625566.94
404600.56
410614.81
423536.33
442164.38
465299.24
491498.96
519362.18
547153.83
573173.81
597935.34
394520.73
400052.51
411936.96
429065.38
450340.3
474436.38
500105.52
525901.99
550604.45
572999.87
384438.82
389525.34
400421.8
416149.59
435720.17
457941.66
481693.65
505731.09
528881.98
550208.22
374338.96
379009.16
388988.01
403427.46
421465.28
442010.37
463985.01
486310.94
507852.18
527640.88
364169.41
368440.98
377579.54
390821.79
407415.41
426348.71
446580.79
467194.02
487174.37
505577.37
353988.13
357878.19
366213.77
378297.29
393427.71
410696.87
429149.76
447955.18
466181.66
482933.17
343895.43
347433.71
355020.13
366019.45
379769.97
395483.68
412320.46
429443.57
446060.63
461412.44
333843.21
337063.37
343959.48
353966.83
366477.06
380828.5
396250.18
411936.27
427254.08
441528.19
323876.34
326821.2
333028.61
342107.32
353484.74
366600.1
380727.34
395174.31
409337.04
422645.26
313981.48
316665.52
322246.59
330487.48
340857.25
352850.04
365814.9
379151.76
392264.98
404698.81
304099.19
306544.31
311620.62
319126.46
328595.84
339555.55
351458.91
363767.94
375944.08
387546.87
294334.32
296568.72
301206.85
308042.78
316683.15
326692.79
337634.93
348998.94
360309.98
371122.54
284739.26
286770.17
291002.19
297224.41
305104.73
314261.62
324323.94
334809.9
345300.61
355390.99
275310.03
277152.5
281007.41
286682.19
293881.49
302273.62
311507.98
321173.67
330889.59
340290.7
266062.84
267734.34
271245.86
276423.37
283001.41
290686.03
299141.14
308043.19
317024.44
325756.09
257014.11
258530.75
261729.65
266452.07
272457.47
279476.88
287214.75
295399.68
303682.62
311770.77
248212.36
249593.28
252521.95
256796.72
262255.63
268649.18
275724.36
283214.89
290835.11
298305.72
239643.87
240900.1
243572.95
247423.02
252361.07
258170.02
264620.57
271455.15
278448.82
285326.56
231238.25
232372.23
234786.15
238263.83
242729.87
248000.71
253865.41
260096.88
266485.69
272801.35
222969.66
223988.51
226160.75
229302.34
233345.03
238123.61
243444.75
249115.43
254932.86
260715.22
214827.43
215738.52
217701.53
220541.75
224200.03
228525.17
233343.94
238490.06
243778.31
249045.11
206849.43
207666.43
209442.15
212013.15
215316.21
219210.75
223559.6
228210.61
233003.6
237780.44
199071.35
199807.56
201406.29
203733.27
206682.07
210166.44
214073.43
218258.79
222584.42
226904.63
191449.47
192108.51
193537.1
195620.92
198236.78
201349.07
204847.56
208601.81
212489.94
216383.69
183941.92
184526.86
185792.46
187640.1
189968.85
192749.53
195871.6
199228.39
202708.21
206200.84
176551.4
177068.5
178185.96
179820.69
181892.45
184369.82
187142.53
190129.86
193229.64
196346.71
169294.11
169750.84
170736.85
172183.25
174029.25
176207.42
178653.31
181295.7
184042.63
186807.07
162153.5
162554.49
163418.1
164697.35
166329.71
168231.58
170383.61
172706.45
175125.57
177562.2
155113.29
155462.5
156213.57
157334.89
158760.41
160425.94
162314.71
164346.12
166464.75
168600.54
148190.73
148493.97
149146.28
150119.84
151358.78
152815.3
154454.77
156220.3
158061.89
159918.99
141389.53
141651.48
142214.89
143055.24
144126.29
145391.28
146797.22
148320.32
149904.97
151504.27
134697.11
134921.32
135403.32
136121.56
137037.52
138120.38
139320.07
140624.3
141977.27
143342.92
128109.38
128299.28
128707.3
129314.6
130091.68
131010.31
132033.21
133137.11
134283.36
135434.8
121630.94
121790.27
122132.35
122641.12
123296.81
124070.8
124935.36
125854.93
126812.42
127768.97
115264.58
115396.81
115680.41
116102.32
116647.63
117289.75
118006.26
118763.77
119553.22
120339.22
109016.49
109124.81
109356.83
109702.27
110147.8
110671.91
111256.02
111875.82
112513.48
113145.37
102890.09
102977.41
103164.05
103442.16
103799.87
104220.21
104687.93
105184.16
105684.43
106178.5
96886.059
96954.882
97101.589
97320.31
97600.575
97929.048
98293.101
98676.905
99059.721
99434.582
91007.394
91060.131
91172.091
91339.102
91552.043
91800.956
92075.255
92361.883
92646.206
92915.396
85260.843
85299.723
85381.783
85504.278
85659.304
85840.095
86037.863
86241.763
86440.381
86618.26
79663.237
79690.537
79747.622
79832.939
79940.025
80063.333
80194.878
80326.09
80447.495
80546.68
74207.96
74225.317
74260.958
74314.23
74379.657
74453.025
74528.365
74598.687
74656.346
74692.76
68906.819
68915.994
68934.01
68960.963
68992.392
69024.912
69054.287
69074.842
69080.403
69064.619
63769.438
63771.944
63775.62
63781.142
63784.86
63784.214
63776.166
63756.088
63719.03
63659.933
58802.748
58799.913
58792.123
58780.476
58761.963
58735.226
58697.576
58645.343
58574.629
58481.414
54016.93
54009.949
53993.293
53968.357
53932.75
53886.024
53825.682
53748.919
53652.714
53533.934
49421.953
49411.885
49388.653
49353.819
49305.857
49244.411
49167.474
49072.91
48958.409
48821.569
45027.179
45014.925
44987.059
44945.336
44889.214
44817.827
44729.702
44623.258
44496.767
44348.424
40841.958
40828.337
40797.767
40752.369
40691.472
40614.144
40519.397
40406.089
40272.964
40118.709
36877.373
36863.271
36831.766
36784.824
36721.551
36641.385
36543.647
36427.542
36292.178
36136.64
33143.953
33129.822
33098.243
33050.874
32987.084
32906.504
32808.679
32693.064
32559.048
32406.017
29648.241
29634.305
29603.244
29556.607
29493.937
29415.002
29319.513
29207.112
29077.401
28930.015
26394.741
26381.319
26351.476
26306.641
26246.498
26170.922
26079.747
25972.763
25849.736
25710.485
23386.733
23374.084
23346.008
23303.806
23247.268
23176.349
23090.973
22991.039
22876.443
22747.057
20625.82
20614.133
20588.232
20549.278
20497.148
20431.853
20353.385
20261.723
20156.878
20038.609
18111.683
18101.094
18077.657
18042.392
17995.241
17936.256
17865.48
17782.957
17688.757
17582.565
15841.66
15832.255
15811.463
15780.164
15738.35
15686.1
15623.493
15550.62
15467.567
15374.162
13811.088
13802.915
13784.866
13757.687
13721.407
13676.124
13621.942
13558.985
13487.34
13407.051
12013.233
12006.308
11991.029
11968.016
11937.325
11899.063
11853.351
11800.331
11740.132
11672.928
10439.188
10433.496
10420.951
10402.054
10376.878
10345.534
10308.154
10264.886
10215.89
10161.43
9077.8975
9073.398
9063.4909
9048.5712
9028.7181
9004.0441
8974.6799
8940.7791
8902.5007
8860.1671
7916.1977
7912.8264
7905.4117
7894.2525
7879.4294
7861.05
7839.2411
7814.1512
7785.9489
7754.8744
6938.8248
6936.4965
6931.3832
6923.6993
6913.521
6900.9481
6886.0992
6869.1137
6850.1531
6829.3972
6128.6519
6127.2648
6124.2256
6119.6756
6113.6834
6106.3382
6097.748
6088.04
6077.3619
6065.8808
5467.2458
5466.6877
5465.4739
5463.684
5461.3766
5458.6298
5455.5397
5452.2205
5448.8046
5445.4422
4935.6173
4935.7738
4936.132
4936.7207
4937.5877
4938.8002
4940.443
4942.617
4945.4398
4949.0453
4515.0778
4515.8399
4517.5294
4520.1337
4523.6905
4528.2575
4533.9087
4540.7339
4548.8375
4558.3388
4187.9556
4189.2267
4192.0342
4196.3317
4202.1477
4209.5319
4218.5498
4229.2812
4241.8199
4256.2735
3938.081
3939.7799
3943.5275
3949.251
3956.97
3966.7266
3978.5778
3992.5938
4008.857
4027.4649
3751.4169
3753.4699
3757.9956
3764.9008
3774.1985
3785.9262
3800.1366
3816.8948
3836.2788
3858.3778
3615.9713
3618.3176
3623.4865
3631.3685
3641.972
3655.3323
3671.4999
3690.5386
3712.5242
3737.5419
3521.4696
3524.0647
3529.7792
3538.4905
3550.2023
3564.9467
3582.7717
3603.7375
3627.9162
3655.3914
3459.3986
3462.2068
3468.3888
3477.8112
3490.4735
3506.4059
3525.6541
3548.2763
3574.3421
3603.9322
3422.7982
3425.7913
3432.3785
3442.4176
3455.9046
3472.8679
3493.3519
3517.4129
3545.1188
3576.5481
3406.0148
3409.17
3416.1123
3426.692
3440.902
3458.7692
3480.3367
3505.6596
3534.8043
3567.8478
3404.4731
3407.7715
3415.0274
3426.0848
3440.9337
3459.6
3482.1255
3508.5643
3538.9813
3573.4521
3414.4885
3417.914
3425.4485
3436.9304
3452.347
3471.7232
3495.1
3522.5303
3554.078
3589.8171
3433.0896
3436.6287
3444.4117
3456.2722
3472.1951
3492.2041
3516.3394
3544.6529
3577.2072
3614.075
3457.8865
3461.5272
3469.5326
3481.7319
3498.1077
3518.6824
3543.4949
3572.5961
3606.0473
3643.9197
3486.9548
3490.6862
3498.8899
3511.3914
3528.171
3549.2502
3574.6669
3604.4704
3638.7205
3677.4863
3518.7657
3522.5772
3530.9566
3543.7256
3560.8626
3582.3885
3608.34
3638.7655
3673.7228
3713.2795
3552.0867
3555.9692
3564.5037
3577.5088
3594.9611
3616.8802
3643.3017
3674.2729
3709.8504
3750.1001
3585.9412
3589.886
3598.5567
3611.7692
3629.4982
3651.7618
3678.5947
3710.0421
3746.1592
3787.0099
3619.5494
3623.5481
3632.3367
3645.7284
3663.6965
3686.2583
3713.4468
3745.3061
3781.8895
3823.2586
3652.3216
3656.366
3665.2545
3678.7981
3696.9687
3719.7823
3747.2712
3779.4781
3816.4544
3858.2596
3683.7932
3687.8769
3696.851
3710.5244
3728.8672
3751.8941
3779.6359
3812.1335
3849.4365
3891.602
3713.5972
3717.7125
3726.7559
3740.5346
3759.0173
3782.2176
3810.1646
3842.8978
3880.465
3922.9214
3741.5323
3745.673
3754.7714
3768.6334
3787.2267
3810.5638
3838.6726
3871.5903
3909.3631
3952.0446
3767.3732
3771.5303
3780.6654
3794.5847
3813.2555
3836.6899
3864.9148
3897.9661
3935.8877
3978.7304
3791.296
3795.4358
3804.545
3818.4568
3837.1488
3860.6274
3888.9149
3922.0441
3960.0563
4002.9991
3813.1573
3817.2746
3826.3332
3840.1667
3858.7804
3882.2188
3910.4946
3943.6319
3981.6655
4024.6382
3832.8883
3837.005
3846.0479
3859.8233
3878.3323
3901.6421
3929.8253
3962.8969
4000.8809
4043.8128
3850.1217
3854.2408
3863.2898
3877.0739
3895.5551
3918.7628
3946.8004
3979.747
4017.6219
4060.4521
3864.9244
3869.0424
3878.0889
3891.8684
3910.3412
3933.5123
3961.4264
3994.2162
4031.9406
4074.6217
3877.3409
3881.4532
3890.487
3904.2468
3922.6922
3945.8251
3973.6635
4006.282
4043.8264
4086.3201
3887.3964
3891.4999
3900.5144
3914.2441
3932.6491
3955.7309
3983.5029
4015.9922
4053.3233
4095.5919
3895.1547
3899.2472
3908.2372
3921.9285
3940.2804
3963.2942
3990.9818
4023.3621
4060.4789
4102.5093
3900.697
3904.7757
3913.7352
3927.3793
3945.6667
3968.598
3996.1844
4028.4411
4065.3941
4107.1621
3904.1306
3908.1928
3917.116
3930.7041
3948.9162
3971.7522
3999.2231
4031.3438
4068.1327
4109.6283
3905.5481
3909.5908
3918.4711
3931.9929
3950.1147
3972.8355
4000.1654
4032.1197
4068.7133
4109.9702
3905.0408
3909.063
3917.8982
3931.3503
3949.3774
3971.9771
3999.1584
4030.9362
4067.3261
4108.3474
3902.693
3906.6925
3915.478
3928.8536
3946.7771
3969.2456
3996.2667
4027.8531
4064.02
4104.7799
3898.6203
3902.5946
3911.3247
3924.6153
3942.4245
3964.7487
3991.595
4022.9745
4058.9025
4099.3892
3892.9225
3896.8712
3905.5449
3918.7487
3936.4401
3958.6144
3985.2771
4016.4389
4052.1147
4092.3173
3885.6788
3889.6
3898.2136
3911.3248
3928.8912
3950.9073
3977.3775
4008.3104
4043.7169
4083.6098
3876.9999
3880.8914
3889.4397
3902.451
3919.883
3941.7298
3967.9952
3998.6864
4033.8123
4073.3856
3866.9554
3870.8175
3879.3013
3892.2132
3909.5107
3931.1867
3957.2435
3987.6868
4022.5249
4061.7707
3855.6396
3859.4708
3867.8865
3880.694
3897.8505
3919.3483
3945.1885
3975.3756
4009.9162
4048.8202
3843.1528
3846.9516
3855.2961
3867.9943
3885.0032
3906.3142
3931.9269
3961.8445
3996.0721
4034.616
3829.5403
3833.3061
3841.578
3854.165
3871.0241
3892.1461
3917.53
3947.1778
3981.093
4019.2792
3814.9044
3818.6362
3826.8337
3839.3065
3856.0119
3876.9398
3902.0883
3931.4592
3965.0551
4002.8785
3799.3033
3803.0005
3811.1219
3823.4783
3840.0268
3860.7571
3885.6663
3914.7545
3948.0225
3985.4711
3782.8122
3786.474
3794.5176
3806.7549
3823.143
3843.6708
3868.3345
3897.1333
3930.0671
3967.1354
3765.4797
3769.1056
3777.0706
3789.1876
3805.414
3825.7384
3850.1566
3878.6668
3911.2682
3947.9595
3747.3782
3750.9681
3758.8539
3770.8499
3786.9138
3807.034
3831.2058
3859.4261
3891.6932
3928.0052
3728.5813
3732.1344
3739.9392
3751.8112
3767.7083
3787.6181
3811.5348
3839.4551
3871.377
3907.2985
3709.0889
3712.6041
3720.326
3732.0716
3747.7992
3767.4965
3791.158
3818.7797
3850.3582
3885.8911
3688.9474
3692.4251
3700.0649
3711.6851
3727.2448
3746.7316
3770.1402
3797.4673
3828.7095
3863.8632
3668.2494
3671.6905
3679.2498
3690.7472
3706.1418
3725.4213
3748.5798
3775.6134
3806.5179
3841.2879
3647.0773
3650.4802
3657.9557
3669.3252
3684.5483
3703.6125
3726.5115
3753.2415
3783.7988
3818.1801
3625.4131
3628.7779
3636.1699
3647.4121
3662.4646
3681.3151
3703.9575
3730.3879
3760.6034
3794.6004
3603.3359
3606.6633
3613.9731
3625.0895
3639.9723
3658.6083
3680.9915
3707.1178
3736.984
3770.5862
3580.8617
3584.1501
3591.3744
3602.3608
3617.0704
3635.4908
3657.6158
3683.4413
3712.9641
3746.1811
3558.0273
3561.278
3568.4195
3579.2803
3593.8223
3612.0336
3633.9068
3659.4366
3688.6177
3721.447
3534.9223
3538.1343
3545.1909
3555.9219
3570.2896
3588.2818
3609.892
3635.1158
3663.9496
3696.39
3511.5206
3514.694
3521.6663
3532.2691
3546.4653
3564.2429
3585.5962
3610.5215
3639.0159
3671.074
3487.9184
3491.0472
3497.9334
3508.4086
3522.4346
3539.9985
3561.0932
3585.7147
3613.8593
3645.5232
3464.1323
3467.2063
3473.998
3484.3379
3498.1868
3515.5317
3536.3659
3560.6849
3588.4847
3619.762
3440.1803
3443.2111
3449.897
3460.0967
3473.7682
3490.8969
3511.4752
3535.497
3562.9569
3593.8492
3416.1014
3419.0991
3425.6846
3435.7452
3449.2374
3466.1447
3486.4583
3510.1722
3537.2814
3567.7807
3391.8364
3394.7986
3401.3033
3411.2361
3424.556
3441.2473
3461.3019
3484.7139
3511.4787
3541.5916
3367.4555
3370.3851
3376.8179
3386.6195
3399.7678
3416.2467
3436.0468
3459.1614
3485.5842
3515.3089
3343.0308
3345.9272
3352.2861
3361.9501
3374.9196
3391.1784
3410.7164
3433.5267
3459.6034
3488.9406
3318.4784
3321.3402
3327.6232
3337.1644
3349.9667
3366.0148
3385.2996
3407.8146
3433.5543
3462.5132
3293.86
3296.6879
3302.8966
3312.3252
3324.9701
3340.817
3359.8571
3382.084
3407.4915
3436.0732
3269.2493
3272.0433
3278.1774
3287.4926
3299.979
3315.6232
3334.4167
3356.3532
3381.4263
3409.6292
3244.6598
3247.4194
3253.4785
3262.6799
3275.0004
3290.4359
3308.9781
3330.6199
3355.3546
3383.1751
3220.1145
3222.8404
3228.8257
3237.9142
3250.0671
3265.2935
3283.5847
3304.9333
3329.3319
3356.7729
3195.5452
3198.2353
3204.1424
3213.1121
3225.1003
3240.1174
3258.1558
3279.2084
3303.2682
3330.3275
3171.0131
3173.6683
3179.4986
3188.3518
3200.1859
3215.0059
3232.8046
3253.5751
3277.3105
3304.0027
3146.4216
3149.0427
3154.7987
3163.5391
3175.222
3189.8517
3207.42
3227.9194
3251.3423
3277.6798
3121.8267
3124.4135
3130.0941
3138.7204
3150.2521
3164.6862
3182.0151
3202.2317
3225.3284
3251.2962
3097.2282
3099.7799
3105.384
3113.8944
3125.2714
3139.508
3156.5965
3176.5302
3199.3014
3224.9011
3072.6437
3075.1607
3080.6887
3089.0834
3100.3058
3114.3432
3131.1907
3150.8417
3173.2885
3198.5222
3048.0966
3050.5791
3056.0317
3064.3121
3075.3819
3089.2214
3105.8306
3125.2031
3147.3313
3172.2067
3023.5892
3026.0375
3031.415
3039.5816
3050.4995
3064.1459
3080.5218
3099.6207
3121.4345
3145.9537
2999.1655
3001.5778
3006.8764
3014.9238
3025.6841
3039.1365
3055.2788
3074.1036
3095.6017
3119.7621
2974.8075
2977.1826
2982.4002
2990.3257
3000.9251
3014.18
3030.0858
3048.6338
3069.8145
3093.617
2950.4878
2952.8272
2957.9668
2965.7745
2976.2177
2989.2785
3004.9504
3023.225
3044.0929
3067.5431
2926.2135
2928.5185
2933.5827
2941.276
2951.5665
2964.4369
2979.8794
2997.8858
3018.4469
3041.5521
2902.0036
2904.2751
2909.2656
2916.8472
2926.9885
2939.6726
2954.8909
2972.6352
2992.8967
3015.6652
2877.8748
2880.1135
2885.0323
2892.5049
2902.5009
2915.0037
2930.0037
2947.4932
2967.4637
2989.9058
2853.8504
2856.0574
2860.9066
2868.2736
2878.1287
2890.456
2905.2451
2922.4891
2942.1802
2964.3067
2829.9828
2832.1595
2836.9419
2844.2071
2853.9255
2866.0811
2880.6612
2897.6582
2917.0618
2938.8587
2806.3233
2808.4664
2813.1754
2820.3292
2829.8987
2841.8683
2856.2244
2872.9577
2892.0558
2913.506
2782.7793
2784.8865
2789.5166
2796.5514
2805.963
2817.737
2831.8608
2848.3251
2867.1183
2888.2271
2759.2618
2761.335
2765.8907
2772.8125
2782.0734
2793.6596
2807.559
2823.7623
2842.2582
2863.0339
2735.792
2737.8324
2742.3163
2749.129
2758.2443
2769.6487
2783.3307
2799.2809
2817.4885
2837.9413
2712.3895
2714.3984
2718.8129
2725.5203
2734.4948
2745.7236
2759.1956
2774.9014
2792.8308
2812.9721
2689.0772
2691.0556
2695.4033
2702.0094
2710.8487
2721.9087
2735.1788
2750.6502
2768.313
2788.1563
2665.8835
2667.8328
2672.1168
2678.6261
2687.3363
2698.2355
2711.3137
2726.5623
2743.9727
2763.535
2642.8465
2644.7686
2648.9928
2655.4116
2664.0017
2674.7518
2687.6512
2702.6897
2719.8562
2739.1374
2620.0507
2621.9462
2626.1118
2632.4408
2640.909
2651.5038
2664.214
2679.0281
2695.9331
2714.9131
2597.4669
2599.3334
2603.435
2609.6659
2618.0012
2628.4273
2640.9336
2655.5092
2672.1422
2690.8189
2574.9877
2576.8241
2580.8597
2586.9908
2595.1935
2605.4554
2617.7662
2632.1147
2648.4901
2666.8797
2552.6125
2554.4208
2558.3947
2564.4324
2572.5108
2582.6183
2594.745
2608.8809
2625.0162
2643.1357
2530.3917
2532.1743
2536.0918
2542.0436
2550.0067
2559.969
2571.92
2585.8477
2601.7394
2619.5786
2508.3713
2510.1275
2513.9866
2519.8492
2527.692
2537.502
2549.2674
2562.9747
2578.6089
2596.1552
2486.4962
2488.2241
2492.021
2497.7889
2505.5045
2515.1551
2526.7294
2540.2149
2555.5985
2572.8654
2464.7127
2466.4134
2470.1508
2475.8283
2483.4232
2492.9233
2504.3181
2517.5958
2532.7446
2549.7507
2443.054
2444.7293
2448.411
2454.004
2461.4867
2470.8476
2482.0771
2495.165
2510.0975
2526.8577
2421.5833
2423.2355
2426.8665
2432.3821
2439.7606
2448.9897
2460.058
2472.9525
2487.6576
2504.154
2400.3229
2401.9509
2405.5283
2410.9618
2418.2288
2427.3158
2438.2095
2450.8944
2465.3555
2481.5754
2379.199
2380.8007
2384.32
2389.665
2396.8133
2405.7514
2416.467
2428.9465
2443.1749
2459.1354
2358.1739
2359.7504
2363.2144
2368.4756
2375.5121
2384.3111
2394.861
2407.1493
2421.1621
2436.8841
2337.283
2338.8361
2342.2493
2347.4334
2354.3676
2363.0399
2373.44
2385.5569
2399.3757
2414.8771
2316.5926
2318.1253
2321.4933
2326.6086
2333.4502
2342.0052
2352.2613
2364.204
2377.8157
2393.074
2296.1352
2297.646
2300.9657
2306.0066
2312.7468
2321.1717
2331.2667
2343.0144
2356.3961
2371.3917
2275.8268
2277.313
2280.5783
2285.5362
2292.1644
2300.4486
2310.3747
2321.9272
2335.0882
2349.8383
2255.6074
2257.0698
2260.2829
2265.1617
2271.6844
2279.8373
2289.6071
2300.9793
2313.9376
2328.4638
2235.5152
2236.9558
2240.1211
2244.9275
2251.3542
2259.3882
2269.0175
2280.2291
2293.0089
2307.3385
2215.6037
2217.0254
2220.1496
2224.8944
2231.2394
2239.1711
2248.676
2259.7384
2272.339
2286.4536
2195.967
2197.3701
2200.4527
2205.1329
2211.3889
2219.2058
2228.5678
2239.4558
2251.8462
2265.7125
2176.5218
2177.9025
2180.9355
2185.5385
2191.6887
2199.3708
2208.5687
2219.2642
2231.4365
2245.0618
2157.1623
2158.5195
2161.5008
2166.026
2172.073
2179.6264
2188.6707
2199.1888
2211.1609
2224.5654
2137.8853
2139.2209
2142.1551
2146.6088
2152.5609
2159.9968
2168.902
2179.2606
2191.0549
2204.2652
2118.7717
2120.088
2122.9803
2127.3711
2133.2403
2140.5746
2149.3615
2159.5871
2171.2306
2184.2654
2099.9056
2101.2071
2104.0663
2108.406
2114.2053
2121.4488
2130.1205
2140.2005
2151.6644
2164.4813
2081.3393
2082.621
2085.4364
2089.7086
2095.4146
2102.5369
2111.0551
2120.9453
2132.1834
2144.7433
2062.9746
2064.2302
2066.9875
2071.1704
2076.7561
2083.727
2092.0647
2101.7485
2112.7554
2125.0599
2044.4624
2045.6927
2048.3953
2052.4962
2057.9738
2064.812
2072.9943
2082.5022
2093.3151
2105.41
2026.0648
2027.2761
2029.9365
2033.9731
2039.3654
2046.098
2054.1556
2063.521
2074.1751
2086.0972
2007.836
2009.0306
2011.6549
2015.6377
2020.9594
2027.6063
2035.5648
2044.8204
2055.3479
2067.119
1989.9054
1991.0881
1993.6859
1997.6273
2002.8914
2009.4618
2017.3209
2026.4472
2036.8143
2048.3907
1972.3791
1973.5452
1976.1062
1979.9902
1985.1747
1991.6408
1999.367
2008.3281
2018.5023
2029.8646
1955.0621
1956.2068
1958.7203
1962.5328
1967.6223
1973.9721
1981.5646
1990.3808
2000.3941
2011.5723
1937.9467
1939.0758
1941.555
1945.3143
1950.3309
1956.586
1964.0588
1972.7252
1982.5567
1993.5206
1921.1792
1922.2882
1924.7226
1928.4129
1933.3353
1939.4691
1946.7913
1955.2752
1964.8953
1975.6266
1904.601
1905.6844
1908.0631
1911.6698
1916.4824
1922.483
1929.6529
1937.9721
1947.419
1957.9608
1888.1254
1889.1924
1891.5358
1895.0886
1899.8279
1905.7349
1912.7886
1920.9657
1930.2392
1940.579
1872.0571
1873.1053
1875.4061
1878.8939
1883.5457
1889.3421
1896.2622
1904.2784
1913.356
1923.467
1856.4009
1857.4257
1859.6739
1863.0811
1867.624
1873.2827
1880.0357
1887.8586
1896.7248
1906.6059
1840.9968
1841.9974
1844.1936
1847.5226
1851.9625
1857.4925
1864.0862
1871.7177
1880.3623
1889.9927
1825.9303
1826.9042
1829.0416
1832.2807
1836.5991
1841.9774
1848.3948
1855.8289
1864.2537
1873.6335
1811.1409
1812.0905
1814.1739
1817.3288
1821.5304
1826.7577
1832.9921
1840.2122
1848.3945
1857.5138
1796.642
1797.5602
1799.5756
1802.6303
1806.7028
1811.7758
1817.8312
1824.8454
1832.7894
1841.6415
1782.4327
1783.3202
1785.2682
1788.2215
1792.1598
1797.0663
1802.9234
1809.7117
1817.4108
1825.9997
1768.407
1769.265
1771.149
1774.0063
1777.8186
1782.571
1788.2419
1794.8105
1802.2601
1810.5722
1754.6266
1755.4533
1757.2686
1760.0224
1763.6965
1768.277
1773.749
1780.0971
1787.3051
1795.3498
1740.9913
1741.7894
1743.5425
1746.2032
1749.7522
1754.1721
1759.4509
1765.5761
1772.5339
1780.3091
1727.518
1728.2848
1729.9691
1732.5257
1735.9388
1740.1973
1745.2902
1751.2061
1757.9286
1765.4425
1714.1648
1714.9037
1716.5261
1718.9873
1722.2726
1726.3732
1731.2797
1736.9823
1743.4701
1750.7321
1700.8892
1701.5994
1703.1599
1705.5306
1708.6988
1712.6566
1717.3969
1722.9087
1729.1767
1736.1892
1687.7641
1688.4482
1689.9517
1692.2359
1695.2879
1699.0991
1703.6607
1708.9627
1714.9935
1721.7401
1674.7254
1675.3814
1676.823
1679.0128
1681.9379
1685.5889
1689.956
1695.0311
1700.8124
1707.2976
1661.571
1662.1956
1663.5689
1665.6577
1668.4528
1671.9502
1676.1472
1681.0425
1686.6363
1692.9301
1648.2187
1648.8235
1650.1542
1652.1807
1654.8972
1658.3041
1662.3955
1667.1651
1672.6062
1678.7108
1635.054
1635.6444
1636.9429
1638.9178
1641.5597
1644.8633
1648.8228
1653.431
1658.6787
1664.555
1622.0767
1622.6445
1623.8925
1625.789
1628.3223
1631.4841
1635.2735
1639.69
1644.7326
1650.401
1608.9516
1609.4942
1610.6877
1612.5045
1614.9373
1617.9845
1621.6462
1625.9244
1630.8219
1636.336
1595.7127
1596.241
1597.404
1599.1768
1601.5542
1604.5323
1608.1081
1612.2787
1617.0402
1622.387
1582.6786
1583.1936
1584.3264
1586.0503
1588.3571
1591.2426
1594.7021
1598.7303
1603.3198
1608.4685
1569.7589
1570.2532
1571.3398
1572.9917
1575.1997
1577.9627
1581.2798
1585.1507
1589.5754
1594.5551
1556.674
1557.1489
1558.1938
1559.7855
1561.9183
1564.5919
1567.8077
1571.5682
1575.8773
1580.7307
1543.5328
1543.9973
1545.0202
1546.5804
1548.6712
1551.2903
1554.4361
1558.1066
1562.299
1567.0087
1530.5919
1531.0449
1532.0418
1533.5592
1535.5899
1538.1304
1541.1769
1544.7247
1548.7677
1553.3065
1517.7452
1518.1801
1519.1363
1520.5903
1522.5361
1524.9725
1527.8986
1531.3141
1535.2194
1539.6161
1504.7518
1505.1708
1506.0932
1507.4986
1509.3822
1511.7439
1514.585
1517.9079
1521.7161
1526.0077
1491.7276
1492.1379
1493.0417
1494.4205
1496.2701
1498.588
1501.3729
1504.6228
1508.3354
1512.5064
1478.8813
1479.2829
1480.1664
1481.5117
1483.3124
1485.5651
1488.2668
1491.413
1494.9981
1499.0209
1466.1588
1466.5452
1467.3949
1468.6873
1470.4154
1472.5779
1475.1744
1478.2041
1481.6672
1485.5644
1453.2961
1453.6683
1454.4875
1455.7355
1457.4076
1459.5035
1462.0236
1464.9698
1468.3444
1472.1508
1440.4386
1440.8019
1441.6024
1442.8237
1444.4627
1446.5206
1448.9951
1451.8838
1455.1841
1458.8923
1427.6686
1428.0264
1428.8134
1430.0117
1431.6157
1433.6229
1436.0304
1438.8344
1442.0296
1445.6093
1415.1572
1415.5023
1416.262
1417.4183
1418.9638
1420.8935
1423.2073
1425.9047
1428.985
1432.4478
1402.4267
1402.7592
1403.4903
1404.6031
1406.0926
1407.9578
1410.1984
1412.8151
1415.8089
1419.1818
1389.9041
1390.2249
1390.9331