/*--------------------------------*- C++ -*----------------------------------*\
  =========                 |
  \\      /  F ield         | OpenFOAM: The Open Source CFD Toolbox
   \\    /   O peration     | Website:  https://openfoam.org
    \\  /    A nd           | Version:  7
     \\/     M anipulation  |
\*---------------------------------------------------------------------------*/
FoamFile
{
    version     2.0;
    format      ascii;
    class       volScalarField;
    location    "80000";
    object      V;
}
// * * * * * * * * * * * * * * * * * * * * * * * * * * * * * * * * * * * * * //

dimensions      [0 3 0 0 0 0 0];

internalField   nonuniform List<scalar> 
87000
(
9.3038673e-13
2.7911602e-12
4.6519336e-12
6.5127071e-12
8.3734806e-12
1.0234254e-11
1.2095027e-11
1.3955801e-11
1.5816574e-11
1.7677348e-11
9.3381153e-13
2.8014346e-12
4.6690576e-12
6.5366807e-12
8.4043037e-12
1.0271927e-11
1.213955e-11
1.4007173e-11
1.5874796e-11
1.7742419e-11
9.3724893e-13
2.8117468e-12
4.6862446e-12
6.5607425e-12
8.4352404e-12
1.0309738e-11
1.2184236e-11
1.4058734e-11
1.5933232e-11
1.780773e-11
9.4069899e-13
2.822097e-12
4.7034949e-12
6.5848929e-12
8.4662909e-12
1.0347689e-11
1.2229087e-11
1.4110485e-11
1.5991883e-11
1.7873281e-11
9.4416175e-13
2.8324852e-12
4.7208087e-12
6.6091322e-12
8.4974557e-12
1.0385779e-11
1.2274103e-11
1.4162426e-11
1.605075e-11
1.7939073e-11
9.4763725e-13
2.8429117e-12
4.7381862e-12
6.6334607e-12
8.5287352e-12
1.042401e-11
1.2319284e-11
1.4214559e-11
1.6109833e-11
1.8005108e-11
9.5112555e-13
2.8533766e-12
4.7556277e-12
6.6578788e-12
8.5601299e-12
1.0462381e-11
1.2364632e-11
1.4266883e-11
1.6169134e-11
1.8071385e-11
9.5462668e-13
2.86388e-12
4.7731334e-12
6.6823868e-12
8.5916401e-12
1.0500893e-11
1.2410147e-11
1.43194e-11
1.6228654e-11
1.8137907e-11
9.5814071e-13
2.8744221e-12
4.7907035e-12
6.706985e-12
8.6232664e-12
1.0539548e-11
1.2455829e-11
1.4372111e-11
1.6288392e-11
1.8204673e-11
9.6166767e-13
2.885003e-12
4.8083384e-12
6.7316737e-12
8.655009e-12
1.0578344e-11
1.250168e-11
1.4425015e-11
1.634835e-11
1.8271686e-11
9.6520761e-13
2.8956228e-12
4.8260381e-12
6.7564533e-12
8.6868685e-12
1.0617284e-11
1.2547699e-11
1.4478114e-11
1.6408529e-11
1.8338945e-11
9.6876059e-13
2.9062818e-12
4.8438029e-12
6.7813241e-12
8.7188453e-12
1.0656366e-11
1.2593888e-11
1.4531409e-11
1.646893e-11
1.8406451e-11
9.7232664e-13
2.9169799e-12
4.8616332e-12
6.8062865e-12
8.7509398e-12
1.0695593e-11
1.2640246e-11
1.45849e-11
1.6529553e-11
1.8474206e-11
9.7590582e-13
2.9277175e-12
4.8795291e-12
6.8313408e-12
8.7831524e-12
1.0734964e-11
1.2686776e-11
1.4638587e-11
1.6590399e-11
1.8542211e-11
9.7949818e-13
2.9384945e-12
4.8974909e-12
6.8564872e-12
8.8154836e-12
1.077448e-11
1.2733476e-11
1.4692473e-11
1.6651469e-11
1.8610465e-11
9.8310375e-13
2.9493113e-12
4.9155188e-12
6.8817263e-12
8.8479338e-12
1.0814141e-11
1.2780349e-11
1.4746556e-11
1.6712764e-11
1.8678971e-11
9.8672261e-13
2.9601678e-12
4.933613e-12
6.9070583e-12
8.8805035e-12
1.0853949e-11
1.2827394e-11
1.4800839e-11
1.6774284e-11
1.874773e-11
9.9035478e-13
2.9710643e-12
4.9517739e-12
6.9324835e-12
8.913193e-12
1.0893903e-11
1.2874612e-11
1.4855322e-11
1.6836031e-11
1.8816741e-11
9.9400032e-13
2.982001e-12
4.9700016e-12
6.9580023e-12
8.9460029e-12
1.0934004e-11
1.2922004e-11
1.4910005e-11
1.6898006e-11
1.8886006e-11
9.9765928e-13
2.9929778e-12
4.9882964e-12
6.983615e-12
8.9789335e-12
1.0974252e-11
1.2969571e-11
1.4964889e-11
1.6960208e-11
1.8955526e-11
1.0013317e-12
3.0039952e-12
5.0066586e-12
7.009322e-12
9.0119855e-12
1.1014649e-11
1.3017312e-11
1.5019976e-11
1.7022639e-11
1.9025303e-11
1.0050177e-12
3.015053e-12
5.0250883e-12
7.0351236e-12
9.0451589e-12
1.1055194e-11
1.306523e-11
1.5075265e-11
1.70853e-11
1.9095336e-11
1.0087172e-12
3.0261516e-12
5.043586e-12
7.0610203e-12
9.0784547e-12
1.1095889e-11
1.3113324e-11
1.5130758e-11
1.7148192e-11
1.9165627e-11
1.0124303e-12
3.0372909e-12
5.0621516e-12
7.0870122e-12
9.1118728e-12
1.1136733e-11
1.3161594e-11
1.5186455e-11
1.7211315e-11
1.9236176e-11
1.0161571e-12
3.0484714e-12
5.0807856e-12
7.1130999e-12
9.1454141e-12
1.1177728e-11
1.3210043e-11
1.5242357e-11
1.7274671e-11
1.9306985e-11
1.0198976e-12
3.0596929e-12
5.0994882e-12
7.1392834e-12
9.1790787e-12
1.1218874e-11
1.3258669e-11
1.5298464e-11
1.733826e-11
1.9378055e-11
1.0236519e-12
3.0709558e-12
5.1182597e-12
7.1655635e-12
9.2128674e-12
1.1260171e-11
1.3307475e-11
1.5354779e-11
1.7402083e-11
1.9449387e-11
1.02742e-12
3.0822601e-12
5.1371002e-12
7.1919403e-12
9.2467804e-12
1.1301621e-11
1.3356461e-11
1.5411301e-11
1.7466141e-11
1.9520981e-11
1.031202e-12
3.0936061e-12
5.1560101e-12
7.2184142e-12
9.2808182e-12
1.1343222e-11
1.3405626e-11
1.546803e-11
1.7530434e-11
1.9592838e-11
1.0349979e-12
3.1049938e-12
5.1749897e-12
7.2449856e-12
9.3149814e-12
1.1384977e-11
1.3454973e-11
1.5524969e-11
1.7594965e-11
1.9664961e-11
1.0388078e-12
3.1164234e-12
5.194039e-12
7.2716546e-12
9.3492702e-12
1.1426886e-11
1.3504501e-11
1.5582117e-11
1.7659733e-11
1.9737348e-11
1.0426317e-12
3.1278951e-12
5.2131586e-12
7.298422e-12
9.3836854e-12
1.1468949e-11
1.3554212e-11
1.5639476e-11
1.7724739e-11
1.9810003e-11
1.0464697e-12
3.1394091e-12
5.2323484e-12
7.3252878e-12
9.4182272e-12
1.1511167e-11
1.3604106e-11
1.5697045e-11
1.7789985e-11
1.9882924e-11
1.0503218e-12
3.1509653e-12
5.2516089e-12
7.3522524e-12
9.452896e-12
1.155354e-11
1.3654183e-11
1.5754827e-11
1.785547e-11
1.9956114e-11
1.0541881e-12
3.1625642e-12
5.2709404e-12
7.3793165e-12
9.4876927e-12
1.1596069e-11
1.3704445e-11
1.5812821e-11
1.7921197e-11
2.0029573e-11
1.0580686e-12
3.1742058e-12
5.290343e-12
7.4064801e-12
9.5226173e-12
1.1638754e-11
1.3754892e-11
1.5871029e-11
1.7987166e-11
2.0103303e-11
1.0619634e-12
3.1858901e-12
5.3098169e-12
7.4337437e-12
9.5576704e-12
1.1681597e-11
1.3805524e-11
1.5929451e-11
1.8053377e-11
2.0177304e-11
1.0658725e-12
3.1976176e-12
5.3293626e-12
7.4611077e-12
9.5928528e-12
1.1724598e-11
1.3856343e-11
1.5988088e-11
1.8119833e-11
2.0251578e-11
1.0697961e-12
3.2093882e-12
5.3489803e-12
7.4885724e-12
9.6281645e-12
1.1767757e-11
1.3907349e-11
1.6046941e-11
1.8186533e-11
2.0326125e-11
1.073734e-12
3.2212021e-12
5.3686701e-12
7.5161381e-12
9.6636062e-12
1.1811074e-11
1.3958542e-11
1.610601e-11
1.8253478e-11
2.0400946e-11
1.0776865e-12
3.2330595e-12
5.3884324e-12
7.5438054e-12
9.6991784e-12
1.1854551e-11
1.4009924e-11
1.6165297e-11
1.832067e-11
2.0476043e-11
1.0816535e-12
3.2449605e-12
5.4082675e-12
7.5715745e-12
9.7348814e-12
1.1898188e-11
1.4061495e-11
1.6224802e-11
1.8388109e-11
2.0551416e-11
1.0856351e-12
3.2569054e-12
5.4281757e-12
7.5994459e-12
9.7707162e-12
1.1941986e-11
1.4113257e-11
1.6284527e-11
1.8455797e-11
2.0627068e-11
1.0896314e-12
3.2688941e-12
5.4481569e-12
7.6274197e-12
9.8066824e-12
1.1985945e-11
1.4165208e-11
1.6344471e-11
1.8523733e-11
2.0702996e-11
1.0936424e-12
3.2809272e-12
5.4682119e-12
7.6554967e-12
9.8427815e-12
1.2030066e-11
1.4217351e-11
1.6404636e-11
1.8591921e-11
2.0779205e-11
1.0976681e-12
3.2930044e-12
5.4883406e-12
7.6836768e-12
9.8790131e-12
1.2074349e-11
1.4269686e-11
1.6465022e-11
1.8660358e-11
2.0855694e-11
1.1017087e-12
3.3051261e-12
5.5085434e-12
7.7119608e-12
9.9153782e-12
1.2118796e-11
1.4322213e-11
1.652563e-11
1.8729048e-11
2.0932465e-11
1.1057641e-12
3.3172924e-12
5.5288207e-12
7.740349e-12
9.9518773e-12
1.2163406e-11
1.4374934e-11
1.6586462e-11
1.879799e-11
2.1009519e-11
1.1098345e-12
3.3295035e-12
5.5491725e-12
7.7688415e-12
9.9885105e-12
1.220818e-11
1.4427849e-11
1.6647518e-11
1.8867187e-11
2.1086856e-11
1.1139199e-12
3.3417596e-12
5.5695993e-12
7.797439e-12
1.0025279e-11
1.2253118e-11
1.4480958e-11
1.6708798e-11
1.8936638e-11
2.1164477e-11
1.1180203e-12
3.3540608e-12
5.5901013e-12
7.8261418e-12
1.0062182e-11
1.2298223e-11
1.4534263e-11
1.6770304e-11
1.9006344e-11
2.1242385e-11
1.1221357e-12
3.3664072e-12
5.6106786e-12
7.8549501e-12
1.0099222e-11
1.2343493e-11
1.4587764e-11
1.6832036e-11
1.9076307e-11
2.1320579e-11
1.1262664e-12
3.3787991e-12
5.6313318e-12
7.8838646e-12
1.0136397e-11
1.238893e-11
1.4641463e-11
1.6893995e-11
1.9146528e-11
2.1399061e-11
1.1304122e-12
3.3912366e-12
5.652061e-12
7.9128855e-12
1.017371e-11
1.2434534e-11
1.4695359e-11
1.6956183e-11
1.9217008e-11
2.1477832e-11
1.1345733e-12
3.4037199e-12
5.6728666e-12
7.9420132e-12
1.021116e-11
1.2480306e-11
1.4749453e-11
1.70186e-11
1.9287746e-11
2.1556893e-11
1.1387497e-12
3.4162492e-12
5.6937486e-12
7.9712481e-12
1.0248748e-11
1.2526247e-11
1.4803746e-11
1.7081246e-11
1.9358745e-11
2.1636245e-11
1.1429415e-12
3.4288245e-12
5.7147076e-12
8.0005906e-12
1.0286474e-11
1.2572357e-11
1.485824e-11
1.7144123e-11
1.9430006e-11
2.1715889e-11
1.1471487e-12
3.4414462e-12
5.7357437e-12
8.0300412e-12
1.0324339e-11
1.2618636e-11
1.4912934e-11
1.7207231e-11
1.9501529e-11
2.1795826e-11
1.1513714e-12
3.4541143e-12
5.7568572e-12
8.0596001e-12
1.0362343e-11
1.2665086e-11
1.4967829e-11
1.7270572e-11
1.9573315e-11
2.1876057e-11
1.1556097e-12
3.4668291e-12
5.7780485e-12
8.0892679e-12
1.0400487e-11
1.2711707e-11
1.5022926e-11
1.7334145e-11
1.9645365e-11
2.1956584e-11
1.1598636e-12
3.4795907e-12
5.7993178e-12
8.1190449e-12
1.0438772e-11
1.2758499e-11
1.5078226e-11
1.7397953e-11
1.971768e-11
2.2037408e-11
1.1641331e-12
3.4923992e-12
5.8206653e-12
8.1489315e-12
1.0477198e-11
1.2805464e-11
1.513373e-11
1.7461996e-11
1.9790262e-11
2.2118528e-11
1.1684183e-12
3.5052549e-12
5.8420915e-12
8.1789281e-12
1.0515765e-11
1.2852601e-11
1.5189438e-11
1.7526274e-11
1.9863111e-11
2.2199948e-11
1.1727193e-12
3.5181579e-12
5.8635965e-12
8.2090351e-12
1.0554474e-11
1.2899912e-11
1.5245351e-11
1.7590789e-11
1.9936228e-11
2.2281667e-11
1.1770361e-12
3.5311084e-12
5.8851807e-12
8.239253e-12
1.0593325e-11
1.2947397e-11
1.530147e-11
1.7655542e-11
2.0009614e-11
2.2363687e-11
1.1813689e-12
3.5441066e-12
5.9068443e-12
8.269582e-12
1.063232e-11
1.2995057e-11
1.5357795e-11
1.7720533e-11
2.0083271e-11
2.2446008e-11
1.1857175e-12
3.5571526e-12
5.9285877e-12
8.3000227e-12
1.0671458e-11
1.3042893e-11
1.5414328e-11
1.7785763e-11
2.0157198e-11
2.2528633e-11
1.1900822e-12
3.5702466e-12
5.950411e-12
8.3305755e-12
1.071074e-11
1.3090904e-11
1.5471069e-11
1.7851233e-11
2.0231398e-11
2.2611562e-11
1.194463e-12
3.5833889e-12
5.9723148e-12
8.3612408e-12
1.0750167e-11
1.3139093e-11
1.5528019e-11
1.7916945e-11
2.030587e-11
2.2694796e-11
1.1988598e-12
3.5965795e-12
5.9942992e-12
8.3920189e-12
1.0789739e-11
1.3187458e-11
1.5585178e-11
1.7982898e-11
2.0380617e-11
2.2778337e-11
1.2032729e-12
3.6098187e-12
6.0163645e-12
8.4229103e-12
1.0829456e-11
1.3236002e-11
1.5642548e-11
1.8049094e-11
2.0455639e-11
2.2862185e-11
1.2077022e-12
3.6231066e-12
6.038511e-12
8.4539154e-12
1.086932e-11
1.3284724e-11
1.5700129e-11
1.8115533e-11
2.0530937e-11
2.2946342e-11
1.2121478e-12
3.6364434e-12
6.0607391e-12
8.4850347e-12
1.090933e-11
1.3333626e-11
1.5757922e-11
1.8182217e-11
2.0606513e-11
2.3030808e-11
1.2166098e-12
3.6498293e-12
6.0830489e-12
8.5162684e-12
1.0949488e-11
1.3382707e-11
1.5815927e-11
1.8249147e-11
2.0682366e-11
2.3115586e-11
1.2210882e-12
3.6632646e-12
6.105441e-12
8.5476173e-12
1.0989794e-11
1.343197e-11
1.5874147e-11
1.8316323e-11
2.0758499e-11
2.3200676e-11
1.2255831e-12
3.6767492e-12
6.1279153e-12
8.5790814e-12
1.1030248e-11
1.3481414e-11
1.593258e-11
1.8383746e-11
2.0834912e-11
2.3286078e-11
1.2300945e-12
3.6902834e-12
6.1504724e-12
8.6106614e-12
1.107085e-11
1.3531039e-11
1.5991228e-11
1.8451417e-11
2.0911606e-11
2.3371795e-11
1.2346225e-12
3.7038676e-12
6.1731127e-12
8.6423577e-12
1.1111603e-11
1.3580848e-11
1.6050093e-11
1.8519338e-11
2.0988583e-11
2.3457828e-11
1.2391672e-12
3.7175017e-12
6.1958362e-12
8.6741706e-12
1.1152505e-11
1.363084e-11
1.6109174e-11
1.8587508e-11
2.1065843e-11
2.3544177e-11
1.2437287e-12
3.731186e-12
6.2186433e-12
8.7061006e-12
1.1193558e-11
1.3681015e-11
1.6168473e-11
1.865593e-11
2.1143387e-11
2.3630845e-11
1.2483069e-12
3.7449207e-12
6.2415345e-12
8.7381482e-12
1.1234762e-11
1.3731376e-11
1.622799e-11
1.8724603e-11
2.1221217e-11
2.3717831e-11
1.252902e-12
3.7587059e-12
6.2645098e-12
8.7703138e-12
1.1276118e-11
1.3781922e-11
1.6287726e-11
1.879353e-11
2.1299333e-11
2.3805137e-11
1.257514e-12
3.7725419e-12
6.2875698e-12
8.8025977e-12
1.1317626e-11
1.3832654e-11
1.6347681e-11
1.8862709e-11
2.1377737e-11
2.3892765e-11
1.2621429e-12
3.7864288e-12
6.3107146e-12
8.8350004e-12
1.1359286e-11
1.3883572e-11
1.6407858e-11
1.8932144e-11
2.145643e-11
2.3980715e-11
1.2667889e-12
3.8003668e-12
6.3339447e-12
8.8675226e-12
1.14011e-11
1.3934678e-11
1.6468256e-11
1.9001834e-11
2.1535412e-11
2.406899e-11
1.271452e-12
3.8143561e-12
6.3572602e-12
8.9001643e-12
1.1443068e-11
1.3985972e-11
1.6528877e-11
1.9071781e-11
2.1614685e-11
2.4157589e-11
1.2761323e-12
3.828397e-12
6.3806616e-12
8.9329263e-12
1.1485191e-11
1.4037456e-11
1.658972e-11
1.9141985e-11
2.169425e-11
2.4246514e-11
1.2808298e-12
3.8424895e-12
6.4041491e-12
8.9658087e-12
1.1527468e-11
1.4089128e-11
1.6650788e-11
1.9212447e-11
2.1774107e-11
2.4335767e-11
1.2855446e-12
3.8566338e-12
6.4277231e-12
8.9988123e-12
1.1569902e-11
1.4140991e-11
1.671208e-11
1.9283169e-11
2.1854258e-11
2.4425348e-11
1.2902768e-12
3.8708303e-12
6.4513839e-12
9.0319374e-12
1.1612491e-11
1.4193044e-11
1.6773598e-11
1.9354152e-11
2.1934705e-11
2.4515259e-11
1.2950263e-12
3.885079e-12
6.4751316e-12
9.0651843e-12
1.1655237e-11
1.424529e-11
1.6835342e-11
1.9425395e-11
2.2015448e-11
2.46055e-11
1.2997934e-12
3.8993802e-12
6.4989669e-12
9.0985537e-12
1.169814e-11
1.4297727e-11
1.6897314e-11
1.9496901e-11
2.2096488e-11
2.4696074e-11
1.304578e-12
3.913734e-12
6.52289e-12
9.132046e-12
1.1741202e-11
1.4350358e-11
1.6959514e-11
1.956867e-11
2.2177826e-11
2.4786982e-11
1.3093802e-12
3.9281406e-12
6.546901e-12
9.1656614e-12
1.1784422e-11
1.4403182e-11
1.7021943e-11
1.9640703e-11
2.2259463e-11
2.4878224e-11
1.3142001e-12
3.9426003e-12
6.5710004e-12
9.1994006e-12
1.1827801e-11
1.4456201e-11
1.7084601e-11
1.9713001e-11
2.2341401e-11
2.4969802e-11
1.3190377e-12
3.9571132e-12
6.5951886e-12
9.2332641e-12
1.187134e-11
1.4509415e-11
1.714749e-11
1.9785566e-11
2.2423641e-11
2.5061717e-11
1.3238932e-12
3.9716795e-12
6.6194658e-12
9.2672521e-12
1.1915038e-11
1.4562825e-11
1.7210611e-11
1.9858397e-11
2.2506184e-11
2.515397e-11
1.3287665e-12
3.9862995e-12
6.6438324e-12
9.3013654e-12
1.1958898e-11
1.4616431e-11
1.7273964e-11
1.9931497e-11
2.258903e-11
2.5246563e-11
1.3336577e-12
4.0009732e-12
6.6682886e-12
9.3356041e-12
1.200292e-11
1.4670235e-11
1.733755e-11
2.0004866e-11
2.2672181e-11
2.5339497e-11
1.338567e-12
4.0157009e-12
6.6928349e-12
9.3699689e-12
1.2047103e-11
1.4724237e-11
1.7401371e-11
2.0078505e-11
2.2755639e-11
2.5432773e-11
1.3434943e-12
4.030483e-12
6.7174716e-12
9.4044603e-12
1.2091449e-11
1.4778438e-11
1.7465426e-11
2.0152415e-11
2.2839404e-11
2.5526392e-11
1.3484398e-12
4.0453193e-12
6.7421988e-12
9.4390784e-12
1.2135958e-11
1.4832837e-11
1.7529717e-11
2.0226597e-11
2.2923476e-11
2.5620356e-11
1.3534035e-12
4.0602104e-12
6.7670173e-12
9.4738242e-12
1.2180631e-11
1.4887438e-11
1.7594245e-11
2.0301052e-11
2.3007859e-11
2.5714666e-11
1.3583854e-12
4.0751562e-12
6.791927e-12
9.5086978e-12
1.2225469e-11
1.4942239e-11
1.765901e-11
2.0375781e-11
2.3092552e-11
2.5809323e-11
1.3633857e-12
4.090157e-12
6.8169283e-12
9.5436997e-12
1.2270471e-11
1.4997242e-11
1.7724014e-11
2.0450785e-11
2.3177556e-11
2.5904328e-11
1.3684044e-12
4.1052131e-12
6.8420218e-12
9.5788305e-12
1.2315639e-11
1.5052448e-11
1.7789257e-11
2.0526065e-11
2.3262874e-11
2.5999683e-11
1.3734415e-12
4.1203246e-12
6.8672076e-12
9.6140906e-12
1.2360974e-11
1.5107857e-11
1.785474e-11
2.0601623e-11
2.3348506e-11
2.6095389e-11
1.3784972e-12
4.1354917e-12
6.8924861e-12
9.6494806e-12
1.2406475e-11
1.5163469e-11
1.7920464e-11
2.0677458e-11
2.3434453e-11
2.6191447e-11
1.3835715e-12
4.1507146e-12
6.9178577e-12
9.6850007e-12
1.2452144e-11
1.5219287e-11
1.798643e-11
2.0753573e-11
2.3520716e-11
2.6287859e-11
1.3886645e-12
4.1659936e-12
6.9433226e-12
9.7206517e-12
1.2497981e-11
1.527531e-11
1.8052639e-11
2.0829968e-11
2.3607297e-11
2.6384626e-11
1.3937763e-12
4.1813288e-12
6.9688814e-12
9.7564339e-12
1.2543986e-11
1.5331539e-11
1.8119092e-11
2.0906644e-11
2.3694197e-11
2.6481749e-11
1.3989068e-12
4.1967204e-12
6.9945341e-12
9.7923477e-12
1.2590161e-11
1.5387975e-11
1.8185789e-11
2.0983602e-11
2.3781416e-11
2.6579229e-11
1.4040563e-12
4.2121688e-12
7.0202814e-12
9.8283939e-12
1.2636506e-11
1.5444619e-11
1.8252732e-11
2.1060844e-11
2.3868957e-11
2.6677069e-11
1.4092247e-12
4.2276739e-12
7.0461233e-12
9.8645725e-12
1.2683022e-11
1.5501471e-11
1.831992e-11
2.113837e-11
2.3956819e-11
2.6775268e-11
1.4144121e-12
4.2432363e-12
7.0720605e-12
9.9008847e-12
1.2729709e-11
1.5558533e-11
1.8387357e-11
2.1216181e-11
2.4045006e-11
2.687383e-11
1.4196186e-12
4.2588558e-12
7.098093e-12
9.9373301e-12
1.2776567e-11
1.5615804e-11
1.8455042e-11
2.1294279e-11
2.4133516e-11
2.6972753e-11
1.4248443e-12
4.2745329e-12
7.1242214e-12
9.97391e-12
1.2823599e-11
1.5673287e-11
1.8522976e-11
2.1372664e-11
2.4222353e-11
2.7072041e-11
1.4300892e-12
4.2902676e-12
7.150446e-12
1.0010624e-11
1.2870803e-11
1.5730981e-11
1.859116e-11
2.1451338e-11
2.4311516e-11
2.7171695e-11
1.4353534e-12
4.3060603e-12
7.1767671e-12
1.0047474e-11
1.2918181e-11
1.5788888e-11
1.8659595e-11
2.1530301e-11
2.4401008e-11
2.7271715e-11
1.440637e-12
4.3219111e-12
7.2031851e-12
1.0084459e-11
1.2965733e-11
1.5847007e-11
1.8728281e-11
2.1609555e-11
2.449083e-11
2.7372104e-11
1.4459401e-12
4.3378203e-12
7.2297006e-12
1.0121581e-11
1.3013461e-11
1.5905341e-11
1.8797221e-11
2.1689102e-11
2.4580982e-11
2.7472862e-11
1.4512626e-12
4.3537878e-12
7.256313e-12
1.0158838e-11
1.3061363e-11
1.5963889e-11
1.8866414e-11
2.1768939e-11
2.4671464e-11
2.7573989e-11
1.4566049e-12
4.3698147e-12
7.2830245e-12
1.0196234e-11
1.3109444e-11
1.6022654e-11
1.8935864e-11
2.1849073e-11
2.4762283e-11
2.7675493e-11
1.4619667e-12
4.3859e-12
7.3098333e-12
1.0233767e-11
1.31577e-11
1.6081633e-11
1.9005567e-11
2.19295e-11
2.4853433e-11
2.7777367e-11
1.4673482e-12
4.4020446e-12
7.3367411e-12
1.0271437e-11
1.3206134e-11
1.614083e-11
1.9075527e-11
2.2010223e-11
2.494492e-11
2.7879616e-11
1.4727495e-12
4.4182486e-12
7.3637476e-12
1.0309247e-11
1.3254746e-11
1.6200245e-11
1.9145744e-11
2.2091243e-11
2.5036742e-11
2.7982241e-11
1.4781709e-12
4.4345127e-12
7.3908544e-12
1.0347196e-11
1.3303538e-11
1.625988e-11
1.9216222e-11
2.2172563e-11
2.5128905e-11
2.8085247e-11
1.4836122e-12
4.4508365e-12
7.4180608e-12
1.0385285e-11
1.3352509e-11
1.6319734e-11
1.9286958e-11
2.2254182e-11
2.5221407e-11
2.8188631e-11
1.4890733e-12
4.46722e-12
7.4453667e-12
1.0423513e-11
1.340166e-11
1.6379807e-11
1.9357953e-11
2.23361e-11
2.5314247e-11
2.8292393e-11
1.4945546e-12
4.4836637e-12
7.4727728e-12
1.0461882e-11
1.3450991e-11
1.64401e-11
1.9429209e-11
2.2418318e-11
2.5407427e-11
2.8396537e-11
1.5000563e-12
4.5001688e-12
7.5002813e-12
1.0500394e-11
1.3500506e-11
1.6500619e-11
1.9500731e-11
2.2500844e-11
2.5500956e-11
2.8501069e-11
1.505578e-12
4.516734e-12
7.52789e-12
1.0539046e-11
1.3550202e-11
1.6561358e-11
1.9572514e-11
2.258367e-11
2.5594826e-11
2.8605982e-11
1.5111201e-12
4.5333603e-12
7.5556004e-12
1.0577841e-11
1.3600081e-11
1.6622321e-11
1.9644561e-11
2.2666801e-11
2.5689041e-11
2.8711282e-11
1.5166825e-12
4.5500475e-12
7.5834125e-12
1.0616777e-11
1.3650142e-11
1.6683507e-11
1.9716872e-11
2.2750237e-11
2.5783602e-11
2.8816967e-11
1.5222657e-12
4.566797e-12
7.6113283e-12
1.065586e-11
1.3700391e-11
1.6744922e-11
1.9789454e-11
2.2833985e-11
2.5878516e-11
2.8923048e-11
1.527869e-12
4.5836071e-12
7.6393451e-12
1.0695083e-11
1.3750821e-11
1.6806559e-11
1.9862297e-11
2.2918035e-11
2.5973773e-11
2.9029511e-11
1.5334933e-12
4.6004798e-12
7.6674664e-12
1.0734453e-11
1.3801439e-11
1.6868426e-11
1.9935413e-11
2.3002399e-11
2.6069386e-11
2.9136372e-11
1.5391381e-12
4.6174144e-12
7.6956907e-12
1.0773967e-11
1.3852243e-11
1.693052e-11
2.0008796e-11
2.3087072e-11
2.6165348e-11
2.9243625e-11
1.5448038e-12
4.6344113e-12
7.7240188e-12
1.0813626e-11
1.3903234e-11
1.6992841e-11
2.0082449e-11
2.3172057e-11
2.6261664e-11
2.9351272e-11
1.5504903e-12
4.6514709e-12
7.7524514e-12
1.0853432e-11
1.3954413e-11
1.7055393e-11
2.0156374e-11
2.3257354e-11
2.6358335e-11
2.9459315e-11
1.5561976e-12
4.6685927e-12
7.7809878e-12
1.0893383e-11
1.4005778e-11
1.7118173e-11
2.0230568e-11
2.3342963e-11
2.6455359e-11
2.9567754e-11
1.5619262e-12
4.6857785e-12
7.8096308e-12
1.0933483e-11
1.4057335e-11
1.7181188e-11
2.030504e-11
2.3428892e-11
2.6552745e-11
2.9676597e-11
1.5676757e-12
4.703027e-12
7.8383783e-12
1.097373e-11
1.4109081e-11
1.7244432e-11
2.0379783e-11
2.3515135e-11
2.6650486e-11
2.9785837e-11
1.5734463e-12
4.720339e-12
7.8672316e-12
1.1014124e-11
1.4161017e-11
1.730791e-11
2.0454802e-11
2.3601695e-11
2.6748587e-11
2.989548e-11
1.5792383e-12
4.7377149e-12
7.8961916e-12
1.1054668e-11
1.4213145e-11
1.7371621e-11
2.0530098e-11
2.3688575e-11
2.6847051e-11
3.0005528e-11
1.5850515e-12
4.7551544e-12
7.9252574e-12
1.109536e-11
1.4265463e-11
1.7435566e-11
2.0605669e-11
2.3775772e-11
2.6945875e-11
3.0115978e-11
1.5908861e-12
4.7726583e-12
7.9544306e-12
1.1136203e-11
1.4317975e-11
1.7499747e-11
2.0681519e-11
2.3863292e-11
2.7045064e-11
3.0226836e-11
1.5967423e-12
4.790227e-12
7.9837117e-12
1.1177196e-11
1.4370681e-11
1.7564166e-11
2.0757651e-11
2.3951135e-11
2.714462e-11
3.0338105e-11
1.6026199e-12
4.8078597e-12
8.0130995e-12
1.1218339e-11
1.4423579e-11
1.7628819e-11
2.0834059e-11
2.4039298e-11
2.7244538e-11
3.0449778e-11
1.6085193e-12
4.825558e-12
8.0425967e-12
1.1259635e-11
1.4476674e-11
1.7693713e-11
2.0910751e-11
2.412779e-11
2.7344829e-11
3.0561867e-11
1.6144402e-12
4.8433207e-12
8.0722012e-12
1.1301082e-11
1.4529962e-11
1.7758843e-11
2.0987723e-11
2.4216604e-11
2.7445484e-11
3.0674365e-11
1.6203832e-12
4.8611495e-12
8.1019158e-12
1.1342682e-11
1.4583448e-11
1.7824215e-11
2.1064981e-11
2.4305747e-11
2.7546514e-11
3.078728e-11
1.6263478e-12
4.8790435e-12
8.1317392e-12
1.1384435e-11
1.463713e-11
1.7889826e-11
2.1142522e-11
2.4395217e-11
2.7647913e-11
3.0900609e-11
1.6323345e-12
4.8970036e-12
8.1616726e-12
1.1426342e-11
1.4691011e-11
1.795568e-11
2.1220349e-11
2.4485018e-11
2.7749687e-11
3.1014356e-11
1.6383432e-12
4.9150297e-12
8.1917162e-12
1.1468403e-11
1.4745089e-11
1.8021776e-11
2.1298462e-11
2.4575149e-11
2.7851835e-11
3.1128522e-11
1.6443741e-12
4.9331224e-12
8.2218707e-12
1.1510619e-11
1.4799367e-11
1.8088115e-11
2.1376864e-11
2.4665612e-11
2.795436e-11
3.1243109e-11
1.650427e-12
4.9512811e-12
8.2521352e-12
1.1552989e-11
1.4853843e-11
1.8154697e-11
2.1455552e-11
2.4756406e-11
2.805726e-11
3.1358114e-11
1.6565023e-12
4.9695068e-12
8.2825114e-12
1.1595516e-11
1.490852e-11
1.8221525e-11
2.153453e-11
2.4847534e-11
2.8160539e-11
3.1473543e-11
1.6626001e-12
4.9878003e-12
8.3130004e-12
1.1638201e-11
1.4963401e-11
1.8288601e-11
2.1613801e-11
2.4939001e-11
2.8264201e-11
3.1589402e-11
1.6687201e-12
5.0061602e-12
8.3436003e-12
1.168104e-11
1.5018481e-11
1.8355921e-11
2.1693361e-11
2.5030801e-11
2.8368241e-11
3.1705681e-11
1.6748628e-12
5.0245883e-12
8.3743139e-12
1.1724039e-11
1.5073765e-11
1.8423491e-11
2.1773216e-11
2.5122942e-11
2.8472667e-11
3.1822393e-11
1.6810281e-12
5.0430842e-12
8.4051404e-12
1.1767197e-11
1.5129253e-11
1.8491309e-11
2.1853365e-11
2.5215421e-11
2.8577477e-11
3.1939534e-11
1.687216e-12
5.0616479e-12
8.4360799e-12
1.1810512e-11
1.5184944e-11
1.8559376e-11
2.1933808e-11
2.530824e-11
2.8682672e-11
3.2057104e-11
1.6934266e-12
5.0802798e-12
8.467133e-12
1.1853986e-11
1.5240839e-11
1.8627693e-11
2.2014546e-11
2.5401399e-11
2.8788252e-11
3.2175105e-11
1.6996602e-12
5.0989807e-12
8.4983012e-12
1.1897622e-11
1.5296942e-11
1.8696263e-11
2.2095583e-11
2.5494904e-11
2.8894224e-11
3.2293545e-11
1.7059169e-12
5.1177507e-12
8.5295845e-12
1.1941418e-11
1.5353252e-11
1.8765086e-11
2.217692e-11
2.5588753e-11
2.9000587e-11
3.2412421e-11
1.7121963e-12
5.1365888e-12
8.5609814e-12
1.1985374e-11
1.5409767e-11
1.8834159e-11
2.2258552e-11
2.5682944e-11
2.9107337e-11
3.2531729e-11
1.7184991e-12
5.1554973e-12
8.5924955e-12
1.2029494e-11
1.5466492e-11
1.890349e-11
2.2340488e-11
2.5777487e-11
2.9214485e-11
3.2651483e-11
1.7248248e-12
5.1744744e-12
8.624124e-12
1.2073774e-11
1.5523423e-11
1.8973073e-11
2.2422722e-11
2.5872372e-11
2.9322022e-11
3.2771671e-11
1.7311741e-12
5.1935222e-12
8.6558704e-12
1.2118219e-11
1.5580567e-11
1.9042915e-11
2.2505263e-11
2.5967611e-11
2.9429959e-11
3.2892308e-11
1.7375467e-12
5.21264e-12
8.6877333e-12
1.2162827e-11
1.563792e-11
1.9113013e-11
2.2588106e-11
2.60632e-11
2.9538293e-11
3.3013386e-11
1.7439425e-12
5.2318276e-12
8.7197126e-12
1.2207598e-11
1.5695483e-11
1.9183368e-11
2.2671253e-11
2.6159138e-11
2.9647023e-11
3.3134908e-11
1.7503623e-12
5.2510868e-12
8.7518113e-12
1.2252536e-11
1.575326e-11
1.9253985e-11
2.2754709e-11
2.6255434e-11
2.9756158e-11
3.3256883e-11
1.7568053e-12
5.2704158e-12
8.7840264e-12
1.2297637e-11
1.5811248e-11
1.9324858e-11
2.2838469e-11
2.6352079e-11
2.986569e-11
3.33793e-11
1.7632722e-12
5.2898165e-12
8.8163609e-12
1.2342905e-11
1.586945e-11
1.9395994e-11
2.2922538e-11
2.6449083e-11
2.9975627e-11
3.3502171e-11
1.7697628e-12
5.3092883e-12
8.8488139e-12
1.2388339e-11
1.5927865e-11
1.9467391e-11
2.3006916e-11
2.6546442e-11
3.0085967e-11
3.3625493e-11
1.7762775e-12
5.3288326e-12
8.8813877e-12
1.2433943e-11
1.5986498e-11
1.9539053e-11
2.3091608e-11
2.6644163e-11
3.0196718e-11
3.3749273e-11
1.7828159e-12
5.3484476e-12
8.9140794e-12
1.2479711e-11
1.6045343e-11
1.9610975e-11
2.3176606e-11
2.6742238e-11
3.030787e-11
3.3873502e-11
1.7893786e-12
5.3681359e-12
8.9468931e-12
1.252565e-11
1.6104408e-11
1.9683165e-11
2.3261922e-11
2.6840679e-11
3.0419437e-11
3.3998194e-11
1.7959655e-12
5.3878966e-12
8.9798277e-12
1.2571759e-11
1.616369e-11
1.9755621e-11
2.3347552e-11
2.6939483e-11
3.0531414e-11
3.4123345e-11
1.8025764e-12
5.4077293e-12
9.0128822e-12
1.2618035e-11
1.6223188e-11
1.9828341e-11
2.3433494e-11
2.7038647e-11
3.0643799e-11
3.4248952e-11
1.8092118e-12
5.4276353e-12
9.0460589e-12
1.2664482e-11
1.6282906e-11
1.9901329e-11
2.3519753e-11
2.7138177e-11
3.07566e-11
3.4375024e-11
1.8158717e-12
5.447615e-12
9.0793584e-12
1.2711102e-11
1.6342845e-11
1.9974588e-11
2.3606332e-11
2.7238075e-11
3.0869818e-11
3.4501562e-11
1.8225559e-12
5.4676676e-12
9.1127793e-12
1.2757891e-11
1.6403003e-11
2.0048114e-11
2.3693226e-11
2.7338338e-11
3.098345e-11
3.4628561e-11
1.8292649e-12
5.4877947e-12
9.1463245e-12
1.2804854e-11
1.6463384e-11
2.0121914e-11
2.3780444e-11
2.7438973e-11
3.1097503e-11
3.4756033e-11
1.8359985e-12
5.5079955e-12
9.1799925e-12
1.2851989e-11
1.6523986e-11
2.0195983e-11
2.386798e-11
2.7539977e-11
3.1211974e-11
3.4883971e-11
1.8427568e-12
5.5282704e-12
9.213784e-12
1.2899298e-11
1.6584811e-11
2.0270325e-11
2.3955838e-11
2.7641352e-11
3.1326866e-11
3.5012379e-11
1.8495401e-12
5.5486203e-12
9.2477005e-12
1.2946781e-11
1.6645861e-11
2.0344941e-11
2.4044021e-11
2.7743102e-11
3.1442182e-11
3.5141262e-11
1.8563484e-12
5.5690452e-12
9.281742e-12
1.2994439e-11
1.6707136e-11
2.0419832e-11
2.4132529e-11
2.7845226e-11
3.1557923e-11
3.527062e-11
1.8631817e-12
5.589545e-12
9.3159084e-12
1.3042272e-11
1.6768635e-11
2.0494998e-11
2.4221362e-11
2.7947725e-11
3.1674089e-11
3.5400452e-11
1.8700401e-12
5.6101203e-12
9.3502005e-12
1.3090281e-11
1.6830361e-11
2.0570441e-11
2.4310521e-11
2.8050601e-11
3.1790682e-11
3.5530762e-11
1.8769238e-12
5.6307714e-12
9.3846189e-12
1.3138467e-11
1.6892314e-11
2.0646162e-11
2.4400009e-11
2.8153857e-11
3.1907704e-11
3.5661552e-11
1.8838329e-12
5.6514987e-12
9.4191645e-12
1.318683e-11
1.6954496e-11
2.0722162e-11
2.4489828e-11
2.8257493e-11
3.2025159e-11
3.5792825e-11
1.8907674e-12
5.6723022e-12
9.4538371e-12
1.3235372e-11
1.7016907e-11
2.0798441e-11
2.4579976e-11
2.8361511e-11
3.2143046e-11
3.5924581e-11
1.8977273e-12
5.693182e-12
9.4886367e-12
1.3284091e-11
1.7079546e-11
2.0875001e-11
2.4670455e-11
2.846591e-11
3.2261365e-11
3.605682e-11
1.904713e-12
5.7141389e-12
9.5235649e-12
1.3332991e-11
1.7142417e-11
2.0951843e-11
2.4761269e-11
2.8570695e-11
3.2380121e-11
3.6189547e-11
1.9117243e-12
5.7351729e-12
9.5586215e-12
1.338207e-11
1.7205519e-11
2.1028967e-11
2.4852416e-11
2.8675865e-11
3.2499313e-11
3.6322762e-11
1.9187615e-12
5.7562844e-12
9.5938073e-12
1.343133e-11
1.7268853e-11
2.1106376e-11
2.4943899e-11
2.8781422e-11
3.2618945e-11
3.6456468e-11
1.9258245e-12
5.7774734e-12
9.6291224e-12
1.3480771e-11
1.733242e-11
2.1184069e-11
2.5035718e-11
2.8887367e-11
3.2739016e-11
3.6590665e-11
1.9329136e-12
5.7987408e-12
9.664568e-12
1.3530395e-11
1.7396222e-11
2.126205e-11
2.5127877e-11
2.8993704e-11
3.2859531e-11
3.6725358e-11
1.9400287e-12
5.8200861e-12
9.7001435e-12
1.3580201e-11
1.7460258e-11
2.1340316e-11
2.5220373e-11
2.9100431e-11
3.2980488e-11
3.6860545e-11
1.9471701e-12
5.8415102e-12
9.7358503e-12
1.363019e-11
1.7524531e-11
2.1418871e-11
2.5313211e-11
2.9207551e-11
3.3101891e-11
3.6996231e-11
1.9543377e-12
5.8630131e-12
9.7716885e-12
1.3680364e-11
1.7589039e-11
2.1497715e-11
2.540639e-11
2.9315065e-11
3.3223741e-11
3.7132416e-11
1.9615317e-12
5.8845952e-12
9.8076586e-12
1.3730722e-11
1.7653785e-11
2.1576849e-11
2.5499912e-11
2.9422976e-11
3.3346039e-11
3.7269103e-11
1.9687522e-12
5.9062565e-12
9.8437608e-12
1.3781265e-11
1.7718769e-11
2.1656274e-11
2.5593778e-11
2.9531282e-11
3.3468787e-11
3.7406291e-11
1.9759993e-12
5.9279978e-12
9.8799964e-12
1.3831995e-11
1.7783993e-11
2.1735992e-11
2.5687991e-11
2.9639989e-11
3.3591988e-11
3.7543986e-11
1.9832729e-12
5.9498188e-12
9.9163647e-12
1.3882911e-11
1.7849456e-11
2.1816002e-11
2.5782548e-11
2.9749094e-11
3.371564e-11
3.7682186e-11
1.9905736e-12
5.9717207e-12
9.9528678e-12
1.3934015e-11
1.7915162e-11
2.1896309e-11
2.5877456e-11
2.9858604e-11
3.3839751e-11
3.7820898e-11
1.9979009e-12
5.9937026e-12
9.9895044e-12
1.3985306e-11
1.7981108e-11
2.197691e-11
2.5972711e-11
2.9968513e-11
3.3964315e-11
3.7960117e-11
2.0052553e-12
6.0157659e-12
1.0026277e-11
1.4036787e-11
1.8047298e-11
2.2057808e-11
2.6068319e-11
3.007883e-11
3.408934e-11
3.8099851e-11
2.0126367e-12
6.0379101e-12
1.0063183e-11
1.4088457e-11
1.811373e-11
2.2139004e-11
2.6164277e-11
3.0189551e-11
3.4214824e-11