/*--------------------------------*- C++ -*----------------------------------*\
  =========                 |
  \\      /  F ield         | OpenFOAM: The Open Source CFD Toolbox
   \\    /   O peration     | Website:  https://openfoam.org
    \\  /    A nd           | Version:  7
     \\/     M anipulation  |
\*---------------------------------------------------------------------------*/
FoamFile
{
    version     2.0;
    format      ascii;
    class       volScalarField;
    location    "80000";
    object      Z;
}
// * * * * * * * * * * * * * * * * * * * * * * * * * * * * * * * * * * * * * //

dimensions      [0 0 0 0 0 0 0];

internalField   nonuniform List<scalar> 
87000
(
0.99999622
0.99999575
0.99999453
0.999992
0.9999865
0.99997276
0.99992807
0.99970264
0.99737303
0.94043502
0.99997637
0.999973
0.99996404
0.99994486
0.99990263
0.99979829
0.99948371
0.99817787
0.98972368
0.91337559
0.99992474
0.99991374
0.99988455
0.99982266
0.99968878
0.99936911
0.99846664
0.99519195
0.9791824
0.89130217
0.99981975
0.99979378
0.99972521
0.99958142
0.99927625
0.99857043
0.99668947
0.99060257
0.96671084
0.87324032
0.99963704
0.99958625
0.99945296
0.99917673
0.99860152
0.99731205
0.99406106
0.98459071
0.95366171
0.85969088
0.99935128
0.99926371
0.99903542
0.99856805
0.99761361
0.99554085
0.99059382
0.97751931
0.94100442
0.84975335
0.9989375
0.99879965
0.9984427
0.99772106
0.99627652
0.99323874
0.9863687
0.96976536
0.92918315
0.84205767
0.99837205
0.99816944
0.99764842
0.99660864
0.99456916
0.99041655
0.98150332
0.9616428
0.91830021
0.8356412
0.99763312
0.99735086
0.99663014
0.99521032
0.99248205
0.98710218
0.97612957
0.95342627
0.90837398
0.83012603
0.99670126
0.99632466
0.99536992
0.99351355
0.99002002
0.9833488
0.97038471
0.9452937
0.89935536
0.82531051
0.99555978
0.99507488
0.9938544
0.99151248
0.98719628
0.97920936
0.96437554
0.93733338
0.89109508
0.82092855
0.99419472
0.99358873
0.99207421
0.98920624
0.98402904
0.97473588
0.95819018
0.9295985
0.88347236
0.81684668
0.99259438
0.99185593
0.99002304
0.98659761
0.98053837
0.9699741
0.95188099
0.92208546
0.87635016
0.81294517
0.99074881
0.98986797
0.98769633
0.98368932
0.97673825
0.96496839
0.94553143
0.91482918
0.86968056
0.80921179
0.98865095
0.9876196
0.98509388
0.98049312
0.9726667
0.95977383
0.93918595
0.9078524
0.86343577
0.80565964
0.98629592
0.98510786
0.98221842
0.97702151
0.96834719
0.95441922
0.93285493
0.90111414
0.85752544
0.80222327
0.98368035
0.98233136
0.9790732
0.97328547
0.96379948
0.94893054
0.92655364
0.89458815
0.85188996
0.79887127
0.98080201
0.97928991
0.9756626
0.96929589
0.95904175
0.94332858
0.92028999
0.88825049
0.84648007
0.79557597
0.97766024
0.97598467
0.97199158
0.96506378
0.95409072
0.9376295
0.91406663
0.88207837
0.8412555
0.79231722
0.97425477
0.97241703
0.96806544
0.9605998
0.94895981
0.93183003
0.90786118
0.87602428
0.8361566
0.78905022
0.97058394
0.96858605
0.9638835
0.95589939
0.94366431
0.92598718
0.90171234
0.87010677
0.83119386
0.78580207
0.96665035
0.96449724
0.95945989
0.95100016
0.93823822
0.92011207
0.89564858
0.86435041
0.82638961
0.78260999
0.96245945
0.960158
0.9548064
0.94591218
0.93268396
0.91419181
0.88963738
0.85871111
0.8216969
0.77943909
0.95801505
0.95557406
0.9499306
0.94064298
0.92701006
0.90823159
0.88366911
0.85316767
0.81709148
0.77627203
0.953322
0.95075118
0.9448397
0.93520079
0.92122514
0.90223646
0.87773901
0.84770429
0.81255608
0.77310365
0.94838561
0.9456955
0.93954146
0.92959435
0.91533682
0.89620971
0.87184256
0.84230914
0.80807665
0.76992845
0.94321157
0.94041347
0.93404364
0.92383261
0.9093531
0.89015439
0.86597568
0.83697205
0.80364003
0.76673797
0.9378064
0.93491255
0.92835491
0.91792374
0.90327977
0.88407133
0.86013158
0.83168249
0.79923767
0.76352681
0.9321769
0.92919972
0.92248263
0.9118755
0.89712246
0.87796127
0.85430623
0.82643227
0.79486144
0.76029254
0.92633058
0.92328311
0.91643603
0.9056962
0.8908867
0.87182575
0.84849637
0.82121401
0.79050401
0.75703406
0.92027578
0.91717144
0.9102235
0.89939339
0.88457757
0.86566579
0.8426979
0.81602019
0.78615654
0.7537464
0.91402167
0.91087412
0.90385422
0.89297471
0.8781997
0.85948143
0.83690485
0.81084188
0.78181208
0.75042493
0.90757846
0.90440078
0.89733681
0.88644688
0.87175612
0.85327109
0.83111475
0.80567617
0.77746675
0.74706837
0.90095615
0.89776124
0.8906803
0.87981694
0.86525117
0.84703632
0.8253257
0.80051877
0.77311729
0.74367701
0.89416593
0.89096637
0.88389445
0.87309256
0.85868964
0.8407775
0.81953299
0.79536196
0.76875599
0.74024651
0.88721944
0.88402718
0.87698858
0.86628027
0.85207457
0.8344941
0.81373236
0.79020111
0.7643795
0.73677429
0.88012861
0.87695471
0.86997215
0.8593871
0.84540888
0.82818628
0.80792449
0.78503612
0.75998703
0.73326152
0.87290549
0.86976034
0.86285494
0.85242083
0.83869795
0.82185526
0.80210734
0.77986354
0.75557524
0.72970646
0.8655622
0.86245554
0.85564687
0.84538833
0.83194597
0.8155029
0.79627787
0.77467689
0.75113808
0.72610521
0.85811088
0.85505164
0.84835766
0.83829612
0.82515442
0.80912806
0.79043542
0.76947679
0.74667627
0.72245873
0.85056452
0.84756095
0.84099676
0.83115134
0.81832916
0.80273295
0.78458035
0.764263
0.74219057
0.71876992
0.84293619
0.83999474
0.83357346
0.82396104
0.8114751
0.79632086
0.77871209
0.75903271
0.73767791
0.71503675
0.83523684
0.83236349
0.8260978
0.81673294
0.80459621
0.78989506
0.77283491
0.75378931
0.73314077
0.71126218
0.82747907
0.82467964
0.8185801
0.80947623
0.79770126
0.78346111
0.76695247
0.74853691
0.72858354
0.7074504
0.81967949
0.81695825
0.81103442
0.80220431
0.79080763
0.7770604
0.76110859
0.74331645
0.72404315
0.70363426
0.81186738
0.8092328
0.80350416
0.79498136
0.78390925
0.77058361
0.75521909
0.7380592
0.71946387
0.6997693
0.80404207
0.80149282
0.79594989
0.78770059
0.77696053
0.76407209
0.74926063
0.73272313
0.71479958
0.69581161
0.79619582
0.79372992
0.78836987
0.78039259
0.77000674
0.75756691
0.7432942
0.72736367
0.71009659
0.69179915
0.78833511
0.78595385
0.78077874
0.77307699
0.76305458
0.75106746
0.73732726
0.7219923
0.70536758
0.68774473
0.78047168
0.77817594
0.77318779
0.76576583
0.75611157
0.74457763
0.73136544
0.71661621
0.70062057
0.68365648
0.7726179
0.7704085
0.7656092
0.7584686
0.74918436
0.73810888
0.72544292
0.71127553
0.69589506
0.67957101
0.76480045
0.76268109
0.75807826
0.75123378
0.7423486
0.73165674
0.71944568
0.70588399
0.69112452
0.67543669
0.75702255
0.75499045
0.75057719
0.74401118
0.73547812
0.72517854
0.71343862
0.70043574
0.68627895
0.67121753
0.74927497
0.74732697
0.74309636
0.73679881
0.72861008
0.71872008
0.70745815
0.69499664
0.68142223
0.66696833
0.74156323
0.73969753
0.73564547
0.7296129
0.72176684
0.71229023
0.70150869
0.68959733
0.67659767
0.66273546
0.7339081
0.73212546
0.72825436
0.72249338
0.71500231
0.70596521
0.69558326
0.68412593
0.67172086
0.65845459
0.72631634
0.72461495
0.72091956
0.71541922
0.70826037
0.69961175
0.68964568
0.67866816
0.66682717
0.6541401
0.71879207
0.71716992
0.71364592
0.7084009
0.70157116
0.69331851
0.68381477
0.6732416
0.66185495
0.64975997
0.71133737
0.70979201
0.70643392
0.7014354
0.69492096
0.68704094
0.67795239
0.66780773
0.65689825
0.64534548
0.70395001
0.70247849
0.69928028
0.69451912
0.68830904
0.68079016
0.67211284
0.66242294
0.6519779
0.64093623
0.69663818
0.69523855
0.69219612
0.68766638
0.68175587
0.67459495
0.66632965
0.65710439
0.64707111
0.63647921
0.68941214
0.68808276
0.68519278
0.68088941
0.6752726
0.66846177
0.66059625
0.65181308
0.64224938
0.63204377
0.68227668
0.68101535
0.67827302
0.67418875
0.66885582
0.66238242
0.65489867
0.64653458
0.63741496
0.62766503
0.6752361
0.67404062
0.67144093
0.66756748
0.66250789
0.65636016
0.64924514
0.64128894
0.6326087
0.62332295
0.66829626
0.6671641
0.66470105
0.66102918
0.65623111
0.65039756
0.643638
0.63607223
0.62781235
0.61896733
0.66146772
0.66039694
0.65806651
0.65459049
0.65004715
0.64452113
0.63811044
0.63092707
0.62308069
0.61467405
0.65475856
0.6537476
0.65154668
0.64826263
0.64396904
0.63874429
0.63267562
0.62586682
0.61842408
0.61044324
0.64816639
0.6472127
0.64513584
0.64203562
0.63798041
0.63304217
0.62730052
0.62084883
0.61378524
0.6062028
0.64168932
0.64079009
0.63883119
0.63590561
0.63207595
0.62740874
0.62197725
0.61586334
0.60915763
0.60194885
0.63532318
0.63447582
0.63262863
0.62986701
0.62624926
0.62183704
0.61669768
0.61090405
0.60453788
0.59768233
0.62906485
0.62826643
0.62652351
0.62391566
0.62049718
0.61632531
0.61146165
0.60597196
0.5999288
0.59340913
0.62290804
0.62215538
0.6205104
0.61804733
0.61481716
0.61087231
0.60626909
0.60106746
0.59533299
0.58913529
0.61684748
0.61613808
0.61458593
0.61226008
0.60920807
0.60547744
0.60112055
0.5961929
0.5907536
0.58486448
0.6108801
0.61021155
0.60874725
0.60655116
0.60366765
0.60013975
0.59601661
0.59134947
0.58619143
0.58059929
0.60500242
0.60437242
0.60299119
0.6009179
0.59819402
0.59485901
0.5909582
0.58653884
0.58164927
0.57634133
0.59921151
0.59861794
0.59731538
0.59535862
0.59278634
0.589635
0.58594542
0.58176154
0.57712825
0.57209211
0.59350433
0.59294518
0.59171705
0.5898708
0.58744268
0.58446611
0.58097728
0.57701766
0.57262894
0.56785258
0.58787777
0.58735112
0.58619433
0.58445388
0.58216237
0.57935149
0.57605412
0.5723078
0.56815138
0.56362319
0.58233142
0.58183568
0.580747
0.57910697
0.57694501
0.57429113
0.57117563
0.56763196
0.56369649
0.55940485
0.5768638
0.57639737
0.57537318
0.57382817
0.57178886
0.56928382
0.56634093
0.56299008
0.55926427
0.55519706
0.57147236
0.57103358
0.5700701
0.5686148
0.5666915
0.56432749
0.56154819
0.55838051
0.5548539
0.55099972
0.56615353
0.56574064
0.56483415
0.56346357
0.56165003
0.55941953
0.55679516
0.5538012
0.55046402
0.54681185
0.56090248
0.56051385
0.55966102
0.55837052
0.55666139
0.55455736
0.5520794
0.54924987
0.54609254
0.54263238
0.555716
0.55535023
0.55454792
0.55333393
0.55172421
0.54973912
0.54739932
0.54472514
0.54173793
0.53846013
0.55059193
0.55024777
0.54949318
0.54835146
0.54683508
0.54496195
0.54275236
0.54022482
0.53739838
0.53429341
0.5455263
0.54520244
0.54449258
0.54341848
0.54198959
0.54022209
0.53813537
0.53574608
0.53307144
0.53012967
0.54051421
0.54020934
0.53954128
0.53853035
0.53718349
0.53551562
0.53354467
0.53128556
0.52875404
0.52596638
0.53555022
0.53526309
0.53463403
0.53368191
0.53241306
0.5308398
0.52897711
0.52684013
0.52444336
0.52180104
0.53062996
0.53035949
0.52976678
0.52886967
0.52767425
0.52618941
0.52442859
0.52240659
0.52013631
0.51763071
0.52574736
0.5254924
0.52493357
0.52408794
0.52296104
0.52155888
0.51989377
0.5179797
0.51582814
0.51345115
0.52089576
0.52065525
0.52012794
0.51933016
0.51826687
0.51694257
0.5153677
0.51355457
0.5115143
0.5092579
0.51606844
0.51584137
0.51534344
0.51459019
0.5135861
0.51233497
0.51084466
0.50912605
0.50719011
0.50504649
0.51125845
0.5110439
0.51057333
0.50986153
0.50891251
0.50772952
0.50631792
0.50468759
0.50284908
0.50081092
0.50645755
0.50625461
0.5058094
0.50513588
0.50423767
0.50311763
0.5017797
0.50023216
0.49848468
0.49654526
0.50165675
0.50146454
0.5010428
0.50040456
0.4995533
0.49849162
0.49722272
0.4957526
0.49408977
0.4922422
0.49684632
0.49666402
0.49626395
0.49565831
0.49485052
0.49384283
0.49263783
0.49123932
0.48965504
0.48789316
0.4920155
0.49184233
0.49146221
0.4908866
0.4901188
0.48916072
0.48801441
0.48668278
0.485172
0.48348946
0.48715274
0.48698796
0.48662619
0.48607821
0.48534715
0.48443467
0.48334237
0.48207273
0.48062997
0.47902057
0.48224541
0.48208832
0.48174338
0.48122074
0.48052337
0.47965266
0.47860987
0.47739711
0.47601682
0.47447487
0.47727937
0.47712929
0.47679971
0.47630018
0.4756335
0.4748008
0.47380309
0.47264208
0.47131961
0.4698402
0.4722388
0.47209509
0.47177942
0.47130087
0.47066193
0.46986366
0.46890691
0.46779304
0.46652355
0.4651014
0.46710744
0.4669695
0.46666647
0.46620695
0.46559324
0.46482624
0.4639066
0.4628354
0.46161383
0.46024349
0.4618666
0.46173385
0.46144216
0.46099975
0.46040868
0.45966973
0.45878337
0.45775044
0.45657186
0.45524855
0.45649624
0.45636811
0.45608657
0.45565943
0.4550886
0.45437468
0.453518
0.45251923
0.45137906
0.45009814
0.45097482
0.45085081
0.45057826
0.4501647
0.44961182
0.44892007
0.44808968
0.4471212
0.44601512
0.44477186
0.44527937
0.44515898
0.44489436
0.44449275
0.44395562
0.44328329
0.44247601
0.44153417
0.44045808
0.43924796
0.4393855
0.43926826
0.43901056
0.43861937
0.43809593
0.4374405
0.43665335
0.43573473
0.43468478
0.43350356
0.43326797
0.43315346
0.43290174
0.43251954
0.43200784
0.43136697
0.43059719
0.42969862
0.42867127
0.42751506
0.42690104
0.42678888
0.42654227
0.4261676
0.42566586
0.42503747
0.42428258
0.42340122
0.42239329
0.4212586
0.42025888
0.42014866
0.41990624
0.41953789
0.41904469
0.41842697
0.41768484
0.41681822
0.41582695
0.41471076
0.4133163
0.4132077
0.41296886
0.41260602
0.41212019
0.41151168
0.41078052
0.4099266
0.4089497
0.40784949
0.4060509
0.40594375
0.40570809
0.40535007
0.40487068
0.40427018
0.40354858
0.40270575
0.40174144
0.4006553
0.39844421
0.39833835
0.39810553
0.39775181
0.39727815
0.39668481
0.39597178
0.39513893
0.39418599
0.39311275
0.39048292
0.39037827
0.39014809
0.38979838
0.38933008
0.38874346
0.38803851
0.3872151
0.386273
0.38521248
0.38216109
0.38205764
0.38183009
0.38148439
0.38102148
0.38044162
0.37974486
0.37893109
0.37800014
0.37695278
0.37348218
0.37338002
0.37315531
0.37281392
0.37235681
0.37178427
0.37109639
0.37029311
0.36937453
0.36834175
0.36446162
0.36436093
0.36413947
0.36380303
0.3633526
0.36278851
0.36211089
0.36131979
0.36041567
0.35939967
0.35512893
0.35503
0.35481243
0.35448193
0.3540395
0.35348554
0.35282024
0.35204374
0.35115681
0.35016049
0.34552938
0.34543259
0.34521975
0.34489647
0.34446377
0.34392209
0.34327172
0.34251293
0.34164661
0.34067366
0.33572489
0.33563071
0.33542359
0.33510904
0.33468809
0.33416125
0.33352888
0.33279131
0.33194944
0.33100414
0.32579314
0.32570205
0.32550173
0.32519753
0.32479051
0.32428121
0.32367007
0.32295748
0.32214423
0.32123109
0.31582466
0.31573713
0.31554466
0.3152524
0.31486141
0.31437226
0.31378543
0.31310141
0.31232068
0.31144409
0.30591743
0.30583387
0.30565013
0.30537115
0.30499796
0.30453114
0.3039712
0.30331863
0.30257398
0.30173785
0.29616981
0.29609052
0.29591615
0.29565141
0.29529728
0.29485433
0.29432305
0.29370394
0.29299755
0.29220446
0.28667239
0.2865975
0.28643282
0.28618277
0.28584828
0.28542988
0.28492804
0.28434321
0.2836759
0.28292665
0.27750081
0.2774303
0.27727525
0.27703981
0.27672483
0.27633079
0.2758581
0.27530716
0.27467841
0.27397231
0.26871103
0.26864474
0.26849894
0.26827752
0.26798125
0.26761056
0.26716578
0.26664724
0.26605529
0.2653903
0.26033811
0.26027574
0.26013854
0.25993016
0.2596513
0.25930229
0.25888342
0.25839493
0.25783707
0.2572101
0.25239827
0.25233943
0.25221002
0.25201344
0.25175032
0.25142095
0.25102555
0.25056429
0.25003736
0.24944492
0.24489254
0.24483687
0.24471441
0.24452837
0.24427933
0.24396753
0.24359313
0.24315625
0.242657
0.24209545
0.23781012
0.23775726
0.23764098
0.23746432
0.23722779
0.23693157
0.23657578
0.23616046
0.23568566
0.23515141
0.23113319
0.23108279
0.23097192
0.23080346
0.23057787
0.23029531
0.22995584
0.22955946
0.22910617
0.22859592
0.22483948
0.22479123
0.22468508
0.22452377
0.22430773
0.22403708
0.22371185
0.22333201
0.22289749
0.22240823
0.21890471
0.21885833
0.21875629
0.21860121
0.21839349
0.21813323
0.21782042
0.21745501
0.2170369
0.21656599
0.21330424
0.21325949
0.21316103
0.21301139
0.21281094
0.21255975
0.2122578
0.21190502
0.21150128
0.21104644
0.20801408
0.20797076
0.20787544
0.20773057
0.20753648
0.20729325
0.20700084
0.20665915
0.20626804
0.20582735
0.20301142
0.20296935
0.2028768
0.20273613
0.20254766
0.20231146
0.20202746
0.20169556
0.20131562
0.20088747
0.19827491
0.19823396
0.19814387
0.19800692
0.19782344
0.19759347
0.19731695
0.19699377
0.19662378
0.19620678
0.19378478
0.19374483
0.19365693
0.19352332
0.1933443
0.1931199
0.19285008
0.19253471
0.19217362
0.19176665
0.18952281
0.18948376
0.18939783
0.18926722
0.18909221
0.18887285
0.18860906
0.18830074
0.18794771
0.18754979
0.18547224
0.18543401
0.18534987
0.18522198
0.18505062
0.18483583
0.18457753
0.18427562
0.18392992
0.18354026
0.18161773
0.18158024
0.18149774
0.18137234
0.18120432
0.18099372
0.18074045
0.18044441
0.18010545
0.17972337
0.17794522
0.17790841
0.17782743
0.17770433
0.17753939
0.17733264
0.17708402
0.17679341
0.17646066
0.17608559
0.17444185
0.17440568
0.1743261
0.17420513
0.17404305
0.17383989
0.17359558
0.17331001
0.17298305
0.1726145
0.17109584
0.17106027
0.170982
0.17086302
0.17070362
0.17050381
0.17026353
0.16998269
0.16966114
0.1692987
0.1678964
0.16786139
0.16778435
0.16766725
0.16751035
0.16731369
0.16707721
0.16680081
0.16648435
0.16612767
0.16483368
0.16479919
0.16472332
0.16460799
0.16445347
0.16425979
0.1640269
0.1637547
0.16344307
0.16309184
0.16189857
0.16186459
0.16178982
0.16167617
0.1615239
0.16133305
0.16110357
0.16083537
0.16052831
0.16018226
0.15908283
0.15904933
0.15897561
0.15886357
0.15871346
0.15852531
0.15829909
0.1580347
0.15773203
0.15739092
0.15637871
0.15634567
0.15627298
0.15616249
0.15601444
0.15582889
0.15560579
0.15534505
0.15504656
0.1547102
0.1537793
0.15374672
0.15367502
0.15356602
0.15341998
0.15323693
0.15301685
0.15275964
0.1524652
0.1521334
0.15127819
0.15124604
0.1511753
0.15106775
0.15092362
0.15074297
0.15052577
0.15027194
0.14998139
0.14965399
0.14886968
0.14883794
0.1487681
0.14866193
0.14851966
0.14834131
0.14812687
0.14787629
0.14758949
0.14726634
0.14654822
0.14651688
0.14644792
0.14634308
0.1462026
0.14602649
0.14581472
0.14556725
0.14528404
0.14496497
0.14430876
0.1442778
0.14420969
0.14410615
0.14396741
0.14379349
0.14358432
0.14333987
0.14306012
0.142745
0.14214659
0.14211601
0.14204872
0.14194645
0.1418094
0.14163761
0.141431
0.1411895
0.14091309
0.14060178
0.14005737
0.14002715
0.13996068
0.13985963
0.13972423
0.1395545
0.13935039
0.13911179
0.13883868
0.13853105
0.13803705
0.1380072
0.13794151
0.13784165
0.13770786
0.13754015
0.13733848
0.13710274
0.13683283
0.13652877
0.13608187
0.13605237
0.13598745
0.13588876
0.13575654
0.13559079
0.13539149
0.13515852
0.13489179
0.13459128
0.13418836
0.1341592
0.13409502
0.13399748
0.13386679
0.13370297
0.13350598
0.13327574
0.13301214
0.13271508
0.13235326
0.13232443
0.132261
0.13216457
0.13203537
0.13187344
0.13167871
0.13145113
0.13119057
0.13089693
0.13057357
0.13054506
0.13048234
0.13038701
0.13025928
0.13009918
0.12990667
0.12968168
0.12942411
0.12913384
0.12884646
0.12881827
0.12875626
0.12866199
0.1285357
0.1283774
0.12818707
0.12796462
0.12770998
0.12742302
0.1271693
0.12714143
0.1270801
0.12698688
0.12686199
0.12670546
0.12651725
0.1262973
0.12604551
0.12576178
0.12553964
0.12551207
0.12545142
0.12535923
0.12523572
0.12508091
0.12489479
0.12467728
0.12442829
0.12414774
0.12395519
0.12392792
0.12386793
0.12377675
0.12365459
0.12350148
0.1233174
0.12310229
0.12285605
0.12257861
0.12241379
0.12238682
0.12232748
0.12223729
0.12211645
0.12196501
0.12178293
0.12157016
0.12132662
0.12105222
0.12091344
0.12088676
0.12082805
0.12073882
0.12061929
0.12046948
0.12028937
0.1200789
0.119838
0.11956659
0.11945223
0.11942583
0.11936775
0.11927948
0.11916122
0.11901301
0.11883483
0.11862662
0.11838832
0.11811984
0.11802841
0.11800229
0.11794482
0.11785748
0.11774047
0.11759383
0.11741754
0.11721155
0.1169758
0.1167102
0.11664028
0.11661444
0.11655757
0.11647114
0.11635536
0.11621026
0.11603582
0.11583201
0.11559874
0.11533596
0.11528629
0.11526071
0.11520443
0.1151189
0.11500432
0.11486073
0.11468812
0.11448643
0.11425562
0.11399559
0.11396496
0.11393964
0.11388394
0.11379929
0.11368589
0.11354378
0.11337295
0.11317336
0.11294494
0.11268763
0.11267489
0.11264984
0.1125947
0.11251091
0.11239867
0.11225801
0.11208894
0.11189139
0.11166532
0.11141067
0.11141479
0.11138998
0.1113354
0.11125246
0.11114135
0.11100211
0.11083474
0.1106392
0.11041544
0.11016339
0.11018338
0.11015883
0.1101048
0.11002268
0.10991268
0.10977484
0.10960915
0.10941559
0.10919408
0.10894458
0.10897955
0.10895524
0.10890174
0.10882044
0.10871153
0.10857506
0.10841102
0.10821938
0.10800009
0.1077531
0.10780218
0.1077781
0.10772513
0.10764462
0.10753678
0.10740166
0.10723924
0.10704949
0.10683237
0.10658782
0.1066502
0.10662636
0.1065739
0.10649417
0.10638738
0.10625357
0.10609273
0.10590483
0.10568983
0.10544768
0.10552262
0.10549901
0.10544705
0.10536809
0.10526232
0.1051298
0.10497051
0.10478444
0.10457153
0.10433173
0.10441852
0.10439513
0.10434367
0.10426546
0.10416071
0.10402945
0.10387169
0.10368739
0.10347652
0.10323903
0.103337
0.10331383
0.10326286
0.10318539
0.10308162
0.1029516
0.10279534
0.10261279
0.10240393
0.1021687
0.10227724
0.10225428
0.10220379
0.10212704
0.10202425
0.10189545
0.10174065
0.10155982
0.10135293
0.10111992
0.10123842
0.10121568
0.10116565
0.10108962
0.10098777
0.10086017
0.10070681
0.10052766
0.1003227
0.10009186
0.10021978
0.10019725
0.10014768
0.10007234
0.099971434
0.099845005
0.099693056
0.099515566
0.099312498
0.099083807
0.099220613
0.099198286
0.099149166
0.099074516
0.098974529
0.098849253
0.098698691
0.098522821
0.09832161
0.098095013
0.098240221
0.098218095
0.098169417
0.098095439
0.097996353
0.097872208
0.097723007
0.097548731
0.097349346
0.097124813
0.097277951
0.097256024
0.097207781
0.097134465
0.097036267
0.096913237
0.096765376
0.096592666
0.096395075
0.096172564
0.096333194
0.096311461
0.096263645
0.096190979
0.096093651
0.095971711
0.095825163
0.095653988
0.095458157
0.09523763
0.095405349
0.095383805
0.095336408
0.095264377
0.095167903
0.095047035
0.094901778
0.094732115
0.094538016
0.094319445
0.09449387
0.094472514
0.094425526
0.094354119
0.094258485
0.094138671
0.093994683
0.093826505
0.093634107
0.093417453
0.093598214
0.093577042
0.093530456
0.093459661
0.09336485
0.093246071
0.093103329
0.092936608
0.092745881
0.092531113
0.092717852
0.09269686
0.092650671
0.092580482
0.092486481
0.09236872
0.092227204
0.092061918
0.091872836
0.091659925
0.09185231
0.091831497
0.091785701
0.091716106
0.0916229
0.091506139
0.091365827
0.09120195
0.091014483
0.090803391
0.091001113
0.090980475
0.090935065
0.090866052
0.090773627
0.090657847
0.090518718
0.090356225
0.090170343
0.089961042
0.090163791
0.090143325
0.090098294
0.090029855
0.089938199
0.089823384
0.089685418
0.089524286
0.089339966
0.089132425
0.089339933
0.089319636
0.089274979
0.089207106
0.089116208
0.089002347
0.088865528
0.088705739
0.088522957
0.088317153
0.088529114
0.088508984
0.088464694
0.088397378
0.088307227
0.0881943
0.088058607
0.087900135
0.087718863
0.087514762
0.087730996
0.087711031
0.087667104
0.087600342
0.087510929
0.087398927
0.087264346
0.087107177
0.086927397
0.086724979
0.086945167
0.086925363
0.08688179
0.086815569
0.086726878
0.086615778
0.086482285
0.086326387
0.086148064
0.085947289
0.086171368
0.086151725
0.086108506
0.086042823
0.085954852
0.085844652
0.085712241
0.08555761
0.085380738
0.085181601
0.085409222
0.085389737
0.085346868
0.085281716
0.085194454
0.085085143
0.084953803
0.084800424
0.084624988
0.084427471
0.084658439
0.084639111
0.084596588
0.084531963
0.084445407
0.08433698
0.084206702
0.084054565
0.083880553
0.083684641
0.083918673
0.0838995
0.083857318
0.083793213
0.083707351
0.083599795
0.083470564
0.083319651
0.083147039
0.082952707
0.083189623
0.083170603
0.083128757
0.083065164
0.082979989
0.082873292
0.082745093
0.082595386
0.082424155
0.082231379
0.08247098
0.082452111
0.082410596
0.082347506
0.082263008
0.082157157
0.082029973
0.081881453
0.08171158
0.081520336
0.081762458
0.081743737
0.081702548
0.081639956
0.081556124
0.081451107
0.081324926
0.081177576
0.081009046
0.080819317
0.081063787
0.081045212
0.081004346
0.080942245
0.080859072
0.080754879
0.080629688
0.080483496
0.080316291
0.080128057
0.080374718
0.080356287
0.08031574
0.080254122
0.080171598
0.080068218
0.079944002
0.079798951
0.079633053
0.079446291
0.079694997
0.079676709
0.079636475
0.079575334
0.079493448
0.079390869
0.079267615
0.079123688
0.078959076
0.078773764
0.079024377
0.079006229
0.078966304
0.078905632
0.078824376
0.078722585
0.078600278
0.078457457
0.078294113
0.078110228
0.078362617
0.078344608
0.078304986
0.078244776
0.078164139
0.078063125
0.077941751
0.077800021
0.077637924
0.077455445
0.077709485
0.077691612
0.077652289
0.077592535
0.077512508
0.077412259
0.077291805
0.077151148
0.076990279
0.076809185
0.077064756
0.077047017
0.077007989
0.076948683
0.076869258
0.076769762
0.076650214
0.076510616
0.076350961
0.07617124
0.076428223
0.076410616
0.07637188
0.076313017
0.076234188
0.076135441
0.076016794
0.075878252
0.075719808
0.075541453
0.075799721
0.075782246
0.075743801
0.075685381
0.075607145
0.075509142
0.075391391
0.075253894
0.075096648
0.074919644
0.075179092
0.075161748
0.07512359
0.075065607
0.074987957
0.074890689
0.07477382
0.074637355
0.074481291
0.074305618
0.074566148
0.074548932
0.074511058
0.074453506
0.074376434
0.074279889
0.074163891
0.074028443
0.073873543
0.073699182
0.073960698
0.073943609
0.073906015
0.073848887
0.073772383
0.073676551
0.07356141
0.073426963
0.073273209
0.073100139
0.073362552
0.073345588
0.073308268
0.073251558
0.073175614
0.073080484
0.072966185
0.072832724
0.072680096
0.072508296
0.072771523
0.072754682
0.072717632
0.072661333
0.072585939
0.072491499
0.07237803
0.072245537
0.072094018
0.071923466
0.072187429
0.072170708
0.072133925
0.07207803
0.072003177
0.071909415
0.071796762
0.071665222
0.071514794
0.071345472
0.071610096
0.071593495
0.071556973
0.071501476
0.071427157
0.071334065
0.071222219
0.071091625
0.070942284
0.070774192
0.071039382
0.0710229
0.070986638
0.070931538
0.070857752
0.070765329
0.070654289
0.070524637
0.070376377
0.070209504
0.07047518
0.070458815
0.070422813
0.070368108
0.070294849
0.070203089
0.070092845
0.069964124
0.069816929
0.069651258
0.069917352
0.069901103
0.069865357
0.06981104
0.069738302
0.069647194
0.069537735
0.069409932
0.069263787
0.069099298
0.06936575
0.069349616
0.069314121
0.069260187
0.069187962
0.069097497
0.068988811
0.068861912
0.068716804
0.068553489
0.068820235
0.068804214
0.068768968
0.068715413
0.068643696
0.068553869
0.068445952
0.068319955
0.068175883
0.068013738
0.068280699
0.06826479
0.068229793
0.068176615
0.068105404
0.068016212
0.067909059
0.067783956
0.067640908
0.067479918
0.067747034
0.067731237
0.067696485
0.067643679
0.067572968
0.067484403
0.067378004
0.067253782
0.067111743
0.06695189
0.067219108
0.067203421
0.067168911
0.067116473
0.067046254
0.066958305
0.066852649
0.066729294
0.066588247
0.066429513
0.066696788
0.066681209
0.066646937
0.066594861
0.066525127
0.066437786
0.066332861
0.066210362
0.0660703
0.065912684
0.066179959
0.066164487
0.066130451
0.066078734
0.066009482
0.065922747
0.065818552
0.065696911
0.065557834
0.06540133
0.065668537
0.065653172
0.065619371
0.065568012
0.065499241
0.065413108
0.065309639
0.065188848
0.065050744
0.064895339
0.065162426
0.065147167
0.065113598
0.065062593
0.064994295
0.064908758
0.064806004
0.064686049
0.064548904
0.064394579
0.064661507
0.064646352
0.064613013
0.064562356
0.064494526
0.064409573
0.064307524
0.064188392
0.064052188
0.063898925
0.064165664
0.064150611
0.064117498
0.064067184
0.063999813
0.063915437
0.063814081
0.063695761
0.063560493
0.063408292
0.063674795
0.063659844
0.063626955
0.063576981
0.063510067
0.063426266
0.063325605
0.063208102
0.063073774
0.062922637
0.06318884
0.063173991
0.063141325
0.063091692
0.063025236
0.06294201
0.062842042
0.06272535
0.062591952
0.062441865
0.062707724
0.062692976
0.062660532
0.062611237
0.062545233
0.062462575
0.06236329
0.062247397
0.062114916
0.061965863
0.062231343
0.062216694
0.062184469
0.062135506
0.062069948
0.061987848
0.061889235
0.061774129
0.061642547
0.061494509
0.06175959
0.061745039
0.061713029
0.061664393
0.061599273
0.061517722
0.06141977
0.061305437
0.061174743
0.061027714
0.061292367
0.061277913
0.061246114
0.061197802
0.061133115
0.061052111
0.060954818
0.060841263
0.060711467
0.060565459
0.060829623
0.060815265
0.060783681
0.060735694
0.060671445
0.06059099
0.060494362
0.060381586
0.060252686
0.06010769
0.060371318
0.060357057
0.060325686
0.060278022
0.060214208
0.060134298
0.060038327
0.059926321
0.059798304
0.059654305
0.059917373
0.059903207
0.059872045
0.059824701
0.059761315
0.059681943
0.059586619
0.059475369
0.059348221
0.059205201
0.059467683
0.059453611
0.059422655
0.059375625
0.059312659
0.059233815
0.059139126
0.059028619
0.058902321
0.058760261
0.059022145
0.059008165
0.058977411
0.058930688
0.058868134
0.058789806
0.05869574
0.058585965
0.058460514
0.058319424
0.058580707
0.058566818
0.058536267
0.058489852
0.058427713
0.058349909
0.058256479
0.058147454
0.058022868
0.057882759
0.058143304
0.058129506
0.058099154
0.058053044
0.057991315
0.057914028
0.057821222
0.05771293
0.057589187
0.057450032
0.057710139
0.057696436
0.057666295
0.057620505
0.057559205
0.057482455
0.057390297
0.057282762
0.057159888
0.057021714
0.057280919
0.057267308
0.057237366
0.05719188
0.057130988
0.05705475
0.056963208
0.056856395
0.056734347
0.056597105
0.056855579
0.056842057
0.056812312
0.056767125
0.056706634
0.056630899
0.056539961
0.056433855
0.056312618
0.056176289
0.056433978
0.056420542
0.056390988
0.056346091
0.05628599
0.056210744
0.056120395
0.056014983
0.05589455
0.055759143
0.056016036
0.056002686
0.055973322
0.055928713
0.055869001
0.055794248
0.055704497
0.055599791
0.055480172
0.055345687
0.055601746
0.055588483
0.05555931
0.055514995
0.055455676
0.055381416
0.055292262
0.055188254
0.055069435
0.054935854
0.055191066
0.055177889
0.055148905
0.055104876
0.055045942
0.054972167
0.054883596
0.054780275
0.054662251
0.054529579
0.054783918
0.054770825
0.054742028
0.054698284
0.054639735
0.054566446
0.054478466
0.054375842
0.054258623
0.054126862
0.054380288
0.054367281
0.054338673
0.054295219
0.054237058
0.054164258
0.054076867
0.053974932
0.053858502
0.05372763
0.053980145
0.053967223
0.053938801
0.053895629
0.053837847
0.053765521
0.053678703
0.053577438
0.053461781
0.053331793
0.053583377
0.053570537
0.053542296
0.0534994
0.053441991
0.053370137
0.05328389
0.053183302
0.053068427
0.052939322
0.053189929
0.053177172
0.053149114
0.053106498
0.053049465
0.052978084
0.052892409
0.052792495
0.052678398
0.052550179