/*--------------------------------*- C++ -*----------------------------------*\
  =========                 |
  \\      /  F ield         | OpenFOAM: The Open Source CFD Toolbox
   \\    /   O peration     | Website:  https://openfoam.org
    \\  /    A nd           | Version:  7
     \\/     M anipulation  |
\*---------------------------------------------------------------------------*/
FoamFile
{
    version     2.0;
    format      ascii;
    class       volScalarField;
    location    "80000";
    object      Zvar;
}
// * * * * * * * * * * * * * * * * * * * * * * * * * * * * * * * * * * * * * //

dimensions      [0 0 0 0 0 0 0];

internalField   nonuniform List<scalar> 
87000
(
1.547896e-08
1.9064731e-08
2.8958676e-08
5.3381583e-08
1.2128622e-07
3.6697017e-07
1.9203643e-06
2.5755775e-05
0.00092454043
0.011007121
5.4982087e-08
8.1815784e-08
1.6145493e-07
3.8434612e-07
1.1064127e-06
4.1028289e-06
2.2006339e-05
0.00018131667
0.0020215889
0.017089848
1.7893129e-07
3.2958539e-07
7.7345068e-07
2.0123866e-06
5.9265338e-06
2.0979708e-05
9.6204878e-05
0.00057328638
0.0037817745
0.02078432
4.5832754e-07
1.0068465e-06
2.600529e-06
6.9475151e-06
2.0097032e-05
6.6752261e-05
0.0002671877
0.0012604921
0.0059524802
0.02333362
9.8428513e-07
2.4888015e-06
6.7873589e-06
1.8177495e-05
5.1024292e-05
0.00015874618
0.00056322114
0.0022021012
0.0081617952
0.024722476
1.8567335e-06
5.2500594e-06
1.4772819e-05
3.9227788e-05
0.00010636751
0.00031025467
0.00098794046
0.0032992083
0.01013428
0.025287356
3.1770655e-06
9.8197937e-06
2.8120951e-05
7.3648361e-05
0.00019265181
0.00052805859
0.0015257809
0.0044551767
0.011788314
0.025540869
5.0427026e-06
1.6735001e-05
4.8353299e-05
0.00012455871
0.00031434718
0.00081226096
0.002151564
0.0056031294
0.013142971
0.025617868
7.5425672e-06
2.6501227e-05
7.6844451e-05
0.00019445565
0.00047384234
0.0011568675
0.0028319365
0.006695405
0.014225738
0.025492176
1.0750639e-05
3.9544371e-05
0.00011464108
0.00028468538
0.00067004985
0.0015517099
0.0035397389
0.0077002357
0.0150669
0.025212146
1.472216e-05
5.6188908e-05
0.00016243274
0.00039565517
0.00090059546
0.0019864801
0.0042545135
0.0086117802
0.01572349
0.024889897
1.9496114e-05
7.6659858e-05
0.00022057495
0.00052697013
0.0011618631
0.0024501787
0.0049595329
0.0094312281
0.016238083
0.024547144
2.5100491e-05
0.00010108552
0.00028909621
0.00067764575
0.0014496784
0.002934583
0.0056472645
0.010166607
0.016644086
0.024195552
3.1551625e-05
0.00012954231
0.00036799189
0.00084707509
0.0017580389
0.0034234165
0.0063055239
0.010825654
0.016965319
0.023850661
3.8837627e-05
0.00016192671
0.00045636801
0.0010311412
0.0020803313
0.0039110642
0.0069236754
0.011406218
0.017214799
0.023515405
4.6935649e-05
0.00019798199
0.00055320942
0.0012275655
0.0024129292
0.004392901
0.0075016104
0.011916097
0.017406145
0.02319133
5.5812951e-05
0.00023745007
0.00065758825
0.0014340855
0.0027512983
0.0048632155
0.0080390351
0.012363024
0.017548872
0.022878238
6.5417945e-05
0.00028000337
0.00076852222
0.0016484049
0.0030913249
0.0053176711
0.0085356182
0.012753764
0.017652072
0.022577114
7.5701944e-05
0.0003253451
0.00088497524
0.0018682059
0.0034294662
0.0057529427
0.0089914037
0.013093844
0.017721968
0.022284847
8.6632287e-05
0.00037311705
0.001005804
0.0020913975
0.0037652755
0.0061721101
0.0094094119
0.013388353
0.017763173
0.022000682
9.8200848e-05
0.00042337968
0.0011317215
0.0023128866
0.0040821171
0.0065653965
0.0097954934
0.013643878
0.017780329
0.021726427
0.00011020995
0.00047484043
0.0012570922
0.0025285751
0.0043851697
0.0069260505
0.010138178
0.013859526
0.017775111
0.021459404
0.00012253598
0.00052673696
0.0013813284
0.0027396026
0.0046750065
0.0072574202
0.010439041
0.014035582
0.017747229
0.021195186
0.00013504269
0.00057857788
0.001503722
0.0029440661
0.0049488757
0.007560163
0.010701304
0.01417494
0.017699105
0.020934
0.00014764636
0.0006299554
0.001623272
0.0031399212
0.0052044449
0.0078337376
0.010927576
0.014280675
0.017630052
0.02067302
0.00016026417
0.00068037667
0.0017388339
0.0033254726
0.0054401218
0.0080776039
0.011119177
0.014355237
0.017541082
0.020409461
0.00017280311
0.00072933329
0.0018491546
0.0034988947
0.0056545928
0.0082916816
0.011277429
0.014401232
0.01743494
0.020143051
0.00018514009
0.0007762743
0.0019532771
0.0036590901
0.005847043
0.0084765613
0.011403348
0.014418769
0.017312593
0.019874814
0.00019720852
0.0008208
0.0020500856
0.0038046645
0.0060167864
0.0086321101
0.011497726
0.01440948
0.017174074
0.019603994
0.00020888382
0.00086228008
0.0021386308
0.0039347714
0.0061631805
0.0087583872
0.011562088
0.014374822
0.017019072
0.019328968
0.0002200435
0.00090033662
0.0022181532
0.0040484493
0.0062857261
0.0088560319
0.011597982
0.014316545
0.016848889
0.019048397
0.00023057107
0.00093456588
0.0022880251
0.0041451752
0.0063845048
0.0089265698
0.011607117
0.014235183
0.016663707
0.018762122
0.00024044065
0.00096480209
0.0023478673
0.0042248294
0.0064600313
0.0089696031
0.011588588
0.014131945
0.016464771
0.018470434
0.00024957656
0.00099076678
0.0023973133
0.0042870624
0.0065119879
0.0089856646
0.011544088
0.014007516
0.016251515
0.01817282
0.00025790344
0.0010122721
0.0024361277
0.0043317562
0.0065410467
0.0089768621
0.011476046
0.013863269
0.016024028
0.017867877
0.00026539739
0.0010293159
0.0024644527
0.0043593256
0.0065480104
0.0089444555
0.011385184
0.013699158
0.015783139
0.017556221
0.0002720661
0.0010419193
0.0024823667
0.004370424
0.0065337628
0.0088878019
0.01127106
0.013516677
0.015529765
0.017237682
0.00027789596
0.0010501099
0.0024898832
0.0043651779
0.0064992463
0.0088090183
0.011135475
0.013316742
0.015264169
0.016911942
0.00028286882
0.0010539234
0.0024874237
0.0043443352
0.0064450697
0.008710179
0.010981842
0.013101051
0.014986271
0.016578815
0.00028697374
0.0010534525
0.0024756325
0.0043095487
0.0063731065
0.0085911537
0.010808794
0.012869477
0.014697455
0.016239212
0.00029020628
0.0010491273
0.0024551755
0.004260983
0.0062842603
0.0084537435
0.010617476
0.01262239
0.01439703
0.01589255
0.00029274136
0.001041366
0.0024265262
0.0041993855
0.0061791639
0.0082997935
0.0104108
0.012361551
0.014085672
0.015538548
0.00029455644
0.0010300265
0.0023899619
0.0041260211
0.006058785
0.00812845
0.010188435
0.012088255
0.013764603
0.015177448
0.00029550852
0.0010152715
0.0023456263
0.004040391
0.0059241064
0.0079423195
0.0099514807
0.011802868
0.013435125
0.014811263
0.0002954043
0.00099691292
0.0022931446
0.0039411534
0.0057690888
0.0077293221
0.0097002258
0.01150996
0.013103284
0.014446319
0.00029396583
0.00097250607
0.0022244554
0.0038517524
0.0056611816
0.007522166
0.0094114569
0.011192427
0.012753945
0.01406943
0.00029308269
0.00095086735
0.0021690535
0.0037680222
0.0055284806
0.007314138
0.0091315455
0.010864878
0.012389726
0.013677436
0.00029269055
0.00093002856
0.0021130444
0.0036700693
0.0053752908
0.0070976564
0.0088537243
0.010537465
0.01202359
0.013282616
0.00029196932
0.00090783438
0.0020531961
0.0035624402
0.0052103141
0.0068717085
0.008571005
0.010207052
0.01165503
0.012885689
0.00029077568
0.00088412255
0.0019890674
0.0034468709
0.0050360219
0.0066374295
0.0082825739
0.0098731918
0.011284569
0.012488147
0.00028874159
0.00085842922
0.0019210275
0.0033249257
0.0048518588
0.0063892403
0.0079745015
0.0095329907
0.010914782
0.012094775
0.00028565204
0.00082937942
0.0018442814
0.003182842
0.0046885282
0.0062144306
0.0076867638
0.0091566982
0.010523157
0.011687364
0.00028308553
0.00080218513
0.0017742269
0.0030640872
0.0045341153
0.0060067738
0.00740293
0.0088039351
0.010130881
0.011270984
0.00028105007
0.00077663514
0.0017072913
0.0029468388
0.0043642471
0.0057776594
0.0071131584
0.0084597121
0.009747241
0.010860578
0.00027866923
0.00075101829
0.0016395536
0.0028258135
0.0041851522
0.0055378315
0.0068137713
0.008102165
0.00936181
0.010454721
0.000275528
0.00072348688
0.001566597
0.0026934383
0.0039825875
0.0053241665
0.0066006776
0.0077727323
0.0089428767
0.010029928
0.00027230698
0.00069664082
0.0014968385
0.0025712421
0.003809688
0.0051168444
0.0063422746
0.0074414945
0.0085422358
0.0096082513
0.00026914318
0.00067039317
0.0014281037
0.0024484989
0.0036278325
0.0048696797
0.0060985562
0.0072099968
0.0081855316
0.0091582431
0.00026624101
0.00064523516
0.0013620413
0.0023313345
0.0034580576
0.0046530163
0.0058547286
0.0069239174
0.0078332473
0.0087453893
0.00026350338
0.00062115561
0.0012985635
0.0022179896
0.0032917939
0.0044339267
0.0055829333
0.0066211607
0.0075019025
0.0083434886
0.00026045217
0.00059718783
0.001235779
0.0021045822
0.0031228068
0.0042075563
0.005295138
0.0063379491
0.0072285825
0.0079630039
0.00025709371
0.00057321794
0.0011734748
0.0019919166
0.002955202
0.0039852688
0.0050199173
0.0060178718
0.0069439453
0.0077026442
0.00025363218
0.00054981966
0.0011130231
0.0018828454
0.0027933915
0.0037726202
0.0047596841
0.0057166258
0.0066142534
0.0073964852
0.000250034
0.00052703237
0.0010547815
0.0017779517
0.0026370169
0.0035658555
0.004503802
0.0054131647
0.0062675331
0.007040335
0.00024614495
0.00050490617
0.00099899581
0.0016776189
0.0024859723
0.0033646757
0.0042562798
0.0051213885
0.0059364699
0.0066792801
0.00024177969
0.00048279636
0.00094392449
0.0015784604
0.0023357921
0.0031634
0.0040082807
0.0048282985
0.0055998522
0.0063046336
0.00023722211
0.00046085512
0.00088938576
0.0014801212
0.0021869569
0.0029638337
0.0037622162
0.0045390197
0.0052711867
0.0059454782
0.00023287932
0.00044004869
0.00083770521
0.0013872225
0.0020470818
0.0027757531
0.0035300622
0.004270558
0.0049711541
0.0056195391
0.00022884553
0.00042058371
0.0007893997
0.0013007491
0.0019171447
0.0026005507
0.003314006
0.0040214771
0.0046948225
0.0053207776
0.00022516574
0.00040256293
0.00074502985
0.0012215051
0.0017976576
0.0024390013
0.0031132547
0.0037884199
0.0044367263
0.0050420804
0.00022197727
0.00038637882
0.00070474463
0.0011488826
0.0016874614
0.0022894097
0.0029260103
0.0035694141
0.0041932851
0.0047786375
0.0002193759
0.00037185828
0.00066790194
0.0010818234
0.0015852656
0.0021505038
0.002751309
0.0033626798
0.0039608521
0.0045268212
0.00021719561
0.00035857816
0.00063377681
0.0010195564
0.0014904988
0.0020213467
0.0025874557
0.0031667143
0.0037388585
0.0042853568
0.00021537891
0.00034645606
0.00060229143
0.00096185906
0.0014023562
0.0019005101
0.0024333357
0.0029815146
0.0035265411
0.0040518303
0.00021390977
0.00033542236
0.0005732161
0.00090823843
0.001319783
0.0017867271
0.0022880747
0.0028061487
0.0033242401
0.0038272667
0.00021275596
0.00032536147
0.00054625359
0.00085816737
0.0012422147
0.0016796995
0.0021513722
0.0026402016
0.0031316498
0.0036120634
0.00021189926
0.00031620881
0.00052122558
0.00081131224
0.001169317
0.0015790131
0.0020223778
0.0024829887
0.0029485244
0.0034067429
0.00021123385
0.00030766149
0.00049751347
0.00076728065
0.001101147
0.0014841952
0.0019005232
0.0023348355
0.0027751575
0.0032111692
0.00021067205
0.00029965734
0.00047535299
0.00072617292
0.0010374377
0.0013952731
0.0017859325
0.0021951816
0.0026112305
0.0030255853
0.00021029539
0.00029235542
0.00045489375
0.00068801619
0.00097800779
0.0013119911
0.0016781438
0.0020637341
0.0024572096
0.0028503164
0.0002101916
0.00028586742
0.00043619487
0.00065273901
0.00092269497
0.0012342107
0.0015770736
0.0019401189
0.0023123234
0.0026851916
0.00021044914
0.0002802569
0.00041920709
0.00062016484
0.00087127556
0.001161683
0.0014825449
0.0018239911
0.0021761242
0.0025302455
0.00021103673
0.0002754029
0.00040372641
0.00058985735
0.00082324786
0.0010941714
0.0013944558
0.0017152406
0.0020480539
0.0023847566
0.00021183935
0.00027116272
0.0003894043
0.0005614617
0.00077875309
0.0010318059
0.0013126469
0.0016139171
0.0019281145
0.0022480439
0.00021288784
0.00026752582
0.0003764082
0.00053560455
0.00073804319
0.00097430827
0.0012368928
0.0015197403
0.0018161357
0.0021198565
0.00021431244
0.00026465491
0.00036498467
0.00051236827
0.00070084106
0.00092125223
0.0011668346
0.0014324451
0.0017120903
0.0020000646
0.00021618277
0.00026259588
0.00035511117
0.00049159434
0.00066684936
0.0008723951
0.0011022638
0.0013517854
0.0016155909
0.0018886008
0.00021849194
0.00026131738
0.00034672555
0.00047284237
0.00063538416
0.00082763632
0.001043368
0.0012776317
0.0015263773
0.001785284
0.00022127956
0.00026083081
0.00033973319
0.00045619612
0.00060715717
0.0007871036
0.00098941543
0.0012096305
0.0014444343
0.0016899539
0.00022467334
0.00026124495
0.00033417032
0.00044181282
0.00058218346
0.00075054911
0.00094032814
0.0011475903
0.0013693341
0.0016021796
0.00022872965
0.00026258717
0.00033007962
0.00042974219
0.00056016209
0.00071742579
0.00089584638
0.0010913425
0.0013009145
0.0015218721
0.00023349751
0.00026487891
0.00032742243
0.00041981829
0.00054093881
0.0006878962
0.00085595875
0.0010405653
0.001238985
0.0014489508
0.00023909522
0.00026822052
0.00032626191
0.00041206028
0.00052471572
0.0006623131
0.00082076353
0.00099526184
0.0011833628
0.0013830991
0.00024568285
0.00027276929
0.00032676704
0.00040666555
0.00051169821
0.0006404953
0.00078971778
0.00095495967
0.0011336175
0.0013240876
0.0002534052
0.00027865141
0.00032902229
0.00040360409
0.00050168418
0.00062219905
0.00076280243
0.00091982618
0.0010900773
0.0012719837
0.00026243849
0.00028602856
0.000333133
0.00040289703
0.00049469442
0.00060774151
0.00074061887
0.0008901046
0.0010523639
0.0012261853
0.00027298739
0.00029509393
0.00033927102
0.00040472815
0.00049093557
0.00059733771
0.0007228995
0.00086501528
0.0010202984
0.0011872058
0.00028528727
0.00030606791
0.00034762681
0.00040923816
0.00049045923
0.0005909086
0.00070972239
0.00084513612
0.00099436623
0.0011549464
0.0002996515
0.00031925436
0.00035848705
0.00041668845
0.00049349856
0.00058867002
0.00070148703
0.00083096065
0.00097464468
0.0011293979
0.00031647742
0.00033504558
0.00037223538
0.00042745556
0.00050042829
0.00059099594
0.00069858114
0.00082245119
0.00096072278
0.0011107131
0.00033613583
0.00035380259
0.00038921401
0.00044185698
0.00051149743
0.00059800543
0.00070095822
0.00081977875
0.00095328463
0.0010992609
0.00035912503
0.0003760097
0.00040987712
0.0004602779
0.00052703007
0.00061006923
0.00070909006
0.00082363559
0.00095314912
0.0010956487
0.00038608256
0.0004023066
0.00043487371
0.00048339187
0.00054772881
0.0006278798
0.00072362523
0.00083461033
0.0009605858
0.0010998979
0.0004176764
0.00043335196
0.00046484134
0.00051180083
0.00057415412
0.0006519533
0.00074502591
0.00085310289
0.00097604444
0.0011126799
0.00045469746
0.00046993003
0.00050055222
0.00054626435
0.00060706011
0.00068302054
0.00077398886
0.00087978811
0.0010003805
0.0011350422
0.00049806007
0.00051295115
0.0005429091
0.00058768809
0.00064734683
0.00072193814
0.00081134157
0.000915493
0.0010344285
0.0011677421
0.00054878212
0.00056342888
0.0005929174
0.00063706406
0.0006959671
0.00076963849
0.00085801179
0.00096111725
0.0010790556
0.0012116231
0.00060796774
0.00062246088
0.0006516733
0.00069549422
0.00075400142
0.00082717006
0.00091501398
0.0010176393
0.0011352008
0.0012675954
0.00067683341
0.00069126877
0.00072041941
0.00076418915
0.00082258485
0.00089562107
0.00098339938
0.0010860675
0.0012038267
0.0013365849
0.00075665451
0.00077113078
0.00080038224
0.00084426108
0.00090278931
0.00097605451
0.0010641879
0.001167373
0.0012858508
0.0014194535
0.00084854827
0.00086311791
0.00089254878
0.00093669648
0.00099562558
0.0010694431
0.0011583058
0.0012624257
0.0013820718
0.0015169242
0.00095337988
0.00096808176
0.00099779731
0.0010423955
0.0011019533
0.0011765944
0.0012664944
0.0013718855
0.0014930561
0.001629442
0.0010717947
0.0010866782
0.0011167742
0.001161955
0.0012223075
0.0012979674
0.0013891236
0.0014960224
0.0016188896
0.0017568404
0.0012039755
0.0012190667
0.0012495928
0.0012954261
0.0013566595
0.0014334347
0.0015259462
0.0016344429
0.0017588924
0.0018982584
0.0013493782
0.0013646809
0.0013956407
0.0014421275
0.0015042343
0.0015821011
0.0016759182
0.0017859251
0.0019117608
0.0020524496
0.001506488
0.0015219813
0.001553327
0.0016003912
0.0016632623
0.0017420722
0.0018369994
0.0019481603
0.00207492
0.0022167202
0.0016725467
0.0016881782
0.0017197973
0.0017672641
0.0018306565
0.0019100904
0.0020057209
0.0021174654
0.0022446361
0.0023871878
0.0018433696
0.0018590548
0.0018907684
0.0019383642
0.0020019043
0.002081481
0.0021772165
0.002288861
0.0024158337
0.0025583807
0.0020131717
0.0020287938
0.0020603567
0.0021077088
0.0021708919
0.0022499686
0.0023450027
0.0024556899
0.0025816185
0.0027230659
0.0021745758
0.0021899877
0.0022210929
0.0022677361
0.0023299353
0.002407719
0.0025011228
0.0026098579
0.0027336052
0.0028725479
0.0023189103
0.0023339442
0.0023642433
0.0024096525
0.0024701655
0.0025457757
0.0026364753
0.0027420536
0.0028623463
0.0029972465
0.0024368411
0.0024513214
0.0024804521
0.0025240834
0.0025821861
0.0026547208
0.0027416372
0.0028428718
0.0029582408
0.0030873856
0.0025193708
0.0025331325
0.0025607567
0.0026021048
0.0026571296
0.0027257655
0.0028079283
0.0029035137
0.0030123951
0.0031344029
0.0025592037
0.0025721088
0.0025979468
0.0026365955
0.0026879952
0.0027520615
0.0028286855
0.0029177337
0.0030190455
0.0031324323
0.0025522062
0.0025641637
0.0025880362
0.0026237215
0.0026711549
0.002730242
0.0028008613
0.0028828644
0.0029760752
0.0030802885
0.0024983996
0.0025093755
0.0025312226
0.0025638609
0.0026072258
0.0026612211
0.0027257225
0.0028005783
0.0028856096
0.0029806089
0.0024021178
0.0024121367
0.0024320209
0.0024617112
0.002501148
0.00255024
0.0026088682
0.0026768876
0.0027541275
0.0028403916
0.0022711063
0.0022802418
0.0022983254
0.0023253147
0.0023611563
0.0024057655
0.0024590316
0.0025208201
0.0025909736
0.0026693112
0.0021150919
0.0021234386
0.0021399244
0.0021645172
0.002197165
0.0022377851
0.0022862695
0.0023424859
0.0024062878
0.0024775206
0.0019444344
0.0019520816
0.0019671606
0.0019896451
0.0020194869
0.0020566095
0.0021009127
0.0021522847
0.0022106086
0.0022757464
0.0017685742
0.0017756169
0.0017894902
0.0018101746
0.0018376311
0.0018717954
0.0019125842
0.0019598969
0.0020136053
0.0020735687
0.0015951387
0.0016016745
0.0016145475
0.0016337397
0.0016592152
0.0016909143
0.001728759
0.0017726544
0.0018224896
0.0018781578
0.0014297613
0.0014358692
0.0014479045
0.0014658487
0.0014896686
0.001519309
0.001554698
0.0015957485
0.0016423578
0.0016944288
0.0012759941
0.0012817397
0.0012930708
0.001309967
0.0013323965
0.0013603073
0.0013936318
0.0014322877
0.0014761787
0.0015252167
0.001135674
0.0011411101
0.0011518433
0.0011678501
0.0011890996
0.0012155416
0.0012471117
0.0012837314
0.0013253093
0.0013717628
0.0010093762
0.001014545
0.001024764
0.0010400064
0.0010602414
0.0010854203
0.0011154804
0.001150346
0.0011899283
0.0012341491
0.00089682247
0.00090175756
0.00091152833
0.00092610458
0.00094545521
0.00096953225
0.00099827413
0.0010316066
0.0010694433
0.0011117089
0.00079720988
0.00080193827
0.00081131299
0.00082530059
0.00084386946
0.0008669719
0.00089454714
0.00092652216
0.00096281182
0.0010033417
0.00070945691
0.00071400038
0.00072302072
0.0007364815
0.00075435043
0.00077657981
0.00080310935
0.00083386677
0.00086876784
0.00090773931
0.00063237237
0.00063674858
0.00064544799
0.00065843155
0.00067566624
0.00069710441
0.00072268615
0.00075233945
0.00078598049
0.00082353667
0.0005647587
0.00056898218
0.00057738807
0.00058993513
0.00060658984
0.00062730442
0.0006520186
0.00068066047
0.0007131471
0.00074940652
0.00050547591
0.00050955898
0.00051769434
0.00052983888
0.00054595847
0.00056600518
0.00058991899
0.00061762834
0.0006490503
0.00068411276
0.00045347727
0.00045743032
0.00046531454
0.00047708526
0.00049270785
0.00051213426
0.00053530451
0.00056214725
0.00059258002
0.00062653041
0.00040782326
0.00041165519
0.00041930484
0.00043072629
0.00044588448
0.00046473125
0.00048720679
0.0005132402
0.00054274943
0.00057566193
0.00036768293
0.00037140148
0.00037883099
0.00038992459
0.00040464693
0.00042294999
0.00044477415
0.00047004849
0.00049869099
0.00053062911
0.0003323249
0.000335937
0.00034315919
0.00035394386
0.00036825543
0.00038604595
0.00040725588
0.00043181466
0.00045964096
0.00049066269
0.00030111932
0.00030463094
0.00031165703
0.00032214943
0.00033607238
0.00035337799
0.00037400703
0.00039788927
0.000424944
0.00045509983
0.00027351429
0.00027693082
0.00028377084
0.00029398586
0.0003075401
0.00032438593
0.00034446454
0.00036770639
0.00039403152
0.00042336817
0.00024904613
0.00025237163
0.0002590333
0.00026898316
0.00028218565
0.00029859313
0.00031814715
0.0003407789
0.00036640915
0.00039496626
0.00022729425
0.00023053214
0.0002370236
0.00024672161
0.00025958959
0.00027558035
0.00029463581
0.0003166875
0.00034165656
0.00036947173
0.00020789945
0.00021105433
0.00021738361
0.00022683998
0.00023938985
0.00025498474
0.00027356467
0.00029506233
0.00031939995
0.00034650692
0.00019055628
0.00019363227
0.00019980497
0.00020903392
0.00022128645
0.00023650794
0.00025463756
0.00027560854
0.00029934453
0.00032577597
0.00017502267
0.0001780237
0.00018404908
0.0001930566
0.00020501797
0.00021988583
0.00023758678
0.00025805084
0.00028120901
0.00030699264
0.00016109202
0.00016402093
0.00016990352
0.0001786977
0.00019037728
0.00020490072
0.00022220154
0.00024219079
0.00026479347
0.00028995388
0.00014856682
0.00015142635
0.00015717138
0.00016576004
0.0001771661
0.00019135569
0.00020826722
0.00022780737
0.00024988452
0.00027444258
0.00013728074
0.0001400736
0.00014568635
0.00015407746
0.00016522085
0.00017908289
0.00019561842
0.00021473866
0.00023631779
0.00026029952
0.00012708994
0.00012981881
0.00013530444
0.00014350567
0.00015439655
0.00016794365
0.00018410583
0.00020280428
0.00022392651
0.00024737806
0.00011786992
0.00012053711
0.00012590004
0.0001339179
0.00014456492
0.00015780785
0.00017360558
0.00019190578
0.00021259434
0.00023553052
0.00010950992
0.00011211775
0.00011736256
0.00012520403
0.00013561661
0.0001485672
0.0001640149
0.00018191158
0.00020215633
0.00022462238
0.00010191338
0.00010446386
0.00010959438
0.00011726506
0.00012745055
0.00014011812
0.00015522711
0.00017272905
0.00019255263
0.00021457389
9.4997424e-05
9.7492611e-05
0.0001025129
0.00011001887
0.00011998544
0.00013238034
0.00014716322
0.00016428562
0.00018369228
0.00020526583
8.8688656e-05
9.1130446e-05
9.6044165e-05
0.00010339084
0.0001131456
0.00012527663
0.00013974412
0.00015649982
0.00017548825
0.00019661878
8.292362e-05
8.5313721e-05
9.0124249e-05
9.7316761e-05
0.00010686669
0.00011874251
0.00013290467
0.00014930502
0.0001678878
0.00018859519
7.7645864e-05
7.998604e-05
8.4696824e-05
9.1740269e-05
0.00010109207
0.00011272106
0.00012658867
0.00014264713
0.00016084018
0.00018111832
7.280484e-05
7.5096681e-05
7.971081e-05
8.6609742e-05
9.576938e-05
0.00010715893
0.00012074041
0.00013646655
0.00015428131
0.00017413452
6.8357403e-05
7.0602376e-05
7.5122775e-05
8.1881647e-05
9.0855219e-05
0.00010201304
0.00011531734
0.00013072149
0.00014816978
0.00016761133
6.4265189e-05
6.6464818e-05
7.0894477e-05
7.7517711e-05
8.6311005e-05
9.7244245e-05
0.00011028014
0.00012537328
0.00014246859
0.00016151406
6.0493572e-05
6.2649294e-05
6.6991022e-05
7.3482756e-05
8.2101193e-05
9.2816512e-05
0.0001055918
0.00012038278
0.00013713497
0.0001557956
5.7011757e-05
5.9124819e-05
6.3381098e-05
6.9745099e-05
7.8193797e-05
8.8697738e-05
0.00010122046
0.00011571836
0.00013213747
0.00015042501
5.3793273e-05
5.586505e-05
6.0038586e-05
6.6278832e-05
7.4562974e-05
8.4861843e-05
9.7139482e-05
0.00011135303
0.00012744983
0.00014537783
5.0814114e-05
5.2845865e-05
5.693918e-05
6.3059521e-05
7.118438e-05
8.1284994e-05
9.3325819e-05
0.00010726427
0.00012304896
0.00014062871
4.8051838e-05
5.0044798e-05
5.4060306e-05
6.0064252e-05
6.8034319e-05
7.7942095e-05
8.9752586e-05
0.0001034238
0.00011890567
0.00013614784
4.5487351e-05
4.7442679e-05
5.1382715e-05
5.7273846e-05
6.5094057e-05
7.481524e-05
8.6402622e-05
9.9814568e-05
0.00011500221
0.00013191617
4.3103752e-05
4.5022606e-05
4.8889442e-05
5.4671066e-05
6.2345656e-05
7.1885519e-05
8.3256559e-05
9.6417791e-05
0.00011132141
0.00012791918
4.0885493e-05
4.2769005e-05
4.6564934e-05
5.224059e-05
5.9774485e-05
6.913922e-05
8.030085e-05
9.3218855e-05
0.00010784619
0.00012413585
3.8817567e-05
4.0666772e-05
4.4393804e-05
4.9966372e-05
5.736316e-05
6.6557063e-05
7.7514762e-05
9.0196528e-05
0.000104556
0.00012054749
3.6887303e-05
3.8703165e-05
4.2363264e-05
4.7835786e-05
5.509973e-05
6.4128352e-05
7.4888753e-05
8.7341775e-05
0.00010144181
0.00011714431
3.5084938e-05
3.6868507e-05
4.0463758e-05
4.5839326e-05
5.297448e-05
6.1842826e-05
7.2411938e-05
8.4643385e-05
9.8492536e-05
0.00011391579
3.3400392e-05
3.5152654e-05
3.8685034e-05
4.3966628e-05
5.0977008e-05
5.9690191e-05
7.0074172e-05
8.2090822e-05
9.5695895e-05
0.00011084658
3.1822895e-05
3.3544735e-05
3.7015977e-05
4.2206117e-05
4.9094939e-05
5.7656731e-05
6.7859821e-05
7.9666606e-05
9.3034257e-05
0.00010792147
3.0343828e-05
3.203603e-05
3.5447735e-05
4.0548908e-05
4.7319661e-05
5.5734739e-05
6.576309e-05
7.7367886e-05
9.0506611e-05
0.00010513737
2.8956206e-05
3.0619703e-05
3.3973707e-05
3.8988579e-05
4.564465e-05
5.3916976e-05
6.3774882e-05
7.518195e-05
8.8096135e-05
0.00010247647
2.7652739e-05
2.928821e-05
3.2585871e-05
3.7516493e-05
4.4060763e-05
5.2194259e-05
6.1886862e-05
7.3102868e-05
8.5801224e-05
9.9941578e-05
2.6427702e-05
2.8036011e-05
3.1279109e-05
3.6128254e-05
4.2564405e-05
5.0563345e-05
6.0095311e-05
7.1125094e-05
8.3612218e-05
9.7516756e-05
2.5274768e-05
2.6856621e-05
3.0046505e-05
3.4816045e-05
4.1146396e-05
4.9013665e-05
5.8388528e-05
6.923664e-05
8.1518804e-05
9.5195918e-05
2.4188546e-05
2.5744592e-05
2.8882614e-05
3.3574683e-05
3.9802292e-05
4.754202e-05
5.6765168e-05
6.7437846e-05
7.9520918e-05
9.2975584e-05
2.3164629e-05
2.4695621e-05
2.7783294e-05
3.2400062e-05
3.8527653e-05
4.6142935e-05
5.5217569e-05
6.5718059e-05
7.7605868e-05
9.0842996e-05
2.2197966e-05
2.3704549e-05
2.674306e-05
3.1286206e-05
3.731604e-05
4.480989e-05
5.3740047e-05
6.4073647e-05
7.577295e-05
8.880069e-05
2.128494e-05
2.2767805e-05
2.5758521e-05
3.0230251e-05
3.6165343e-05
4.3541462e-05
5.2331167e-05
6.2502037e-05
7.401689e-05
8.6838833e-05
2.0421618e-05
2.1881278e-05
2.482562e-05
2.9227861e-05
3.5070215e-05
4.2330942e-05
5.0983012e-05
6.0994514e-05
7.2328929e-05
8.4950358e-05
1.9604596e-05
2.1041782e-05
2.3940985e-05
2.8275171e-05
3.4026926e-05
4.1175162e-05
4.969334e-05
5.9550167e-05
7.0709771e-05
8.3136447e-05
1.8831508e-05
2.0246859e-05
2.3101946e-05
2.7369802e-05
3.3033412e-05
4.0072069e-05
4.845962e-05
5.8165194e-05
6.9153378e-05
8.13889e-05
1.8098825e-05
1.9492682e-05
2.230436e-05
2.6507623e-05
3.2085359e-05
3.9016829e-05
4.7276629e-05
5.6834361e-05
6.7655361e-05
7.9705194e-05
1.7403901e-05
1.8776668e-05
2.154613e-05
2.5686686e-05
3.1180725e-05
3.8007776e-05
4.6143318e-05
5.5557508e-05
6.6216138e-05
7.8084899e-05
1.6745046e-05
1.8097286e-05
2.0825746e-05
2.4905202e-05
3.0317598e-05
3.7042807e-05
4.5056986e-05
5.4330692e-05
6.4830143e-05
7.6521478e-05
1.6119422e-05
1.7451622e-05
2.0139968e-05
2.4159569e-05
2.9492085e-05
3.6117717e-05
4.4013216e-05
5.3149549e-05
6.3493414e-05
7.5011398e-05
1.5524719e-05
1.6837288e-05
1.9486302e-05
2.3447126e-05
2.8701369e-05
3.5229599e-05
4.3009012e-05
5.2010997e-05
6.2202742e-05
7.3551276e-05
1.4958369e-05
1.6251814e-05
1.8862299e-05
2.2765526e-05
2.7943661e-05
3.4377232e-05
4.20435e-05
5.0914558e-05
6.0958076e-05
7.214155e-05
1.4419078e-05
1.56937e-05
1.8266196e-05
2.2112888e-05
2.7216562e-05
3.3557326e-05
4.1112588e-05
4.9855257e-05
5.9753492e-05
7.0775157e-05
1.3904396e-05
1.5160763e-05
1.769638e-05
2.1488265e-05
2.6519645e-05
3.2770298e-05
4.0217902e-05
4.8836018e-05
5.8593186e-05
6.9457629e-05
1.3412821e-05
1.4651064e-05
1.7150115e-05
2.0887594e-05
2.5847167e-05
3.2008387e-05
3.9349102e-05
4.7843444e-05
5.746036e-05
6.8168394e-05
1.2944006e-05
1.4164518e-05
1.662776e-05
2.0311896e-05
2.5200859e-05
3.1274096e-05
3.850977e-05
4.6882502e-05
5.6361648e-05
6.6916151e-05
1.2496481e-05
1.3699478e-05
1.6127387e-05
1.9758825e-05
2.4578065e-05
3.0564642e-05
3.7696987e-05
4.5950176e-05
5.5294026e-05
6.5697882e-05
1.2069703e-05
1.3255603e-05
1.5648993e-05
1.9228892e-05
2.3979905e-05
2.9881802e-05
3.6913312e-05
4.5049892e-05
5.426182e-05
6.4518887e-05
1.1662285e-05
1.2831421e-05
1.5190995e-05
1.8720317e-05
2.3404348e-05
2.9223406e-05
3.615637e-05
4.4178906e-05
5.3261872e-05
6.3375475e-05
1.1273285e-05
1.2426047e-05
1.4752574e-05
1.8232364e-05
2.2850857e-05
2.8589084e-05
3.5425837e-05
4.3336908e-05
5.2293639e-05
6.2266148e-05
1.0901387e-05
1.2038096e-05
1.4332234e-05
1.7763482e-05
2.2317775e-05
2.7976666e-05
3.4718796e-05
4.2519995e-05
5.1352025e-05
6.1185535e-05
1.054541e-05
1.1666337e-05
1.3928642e-05
1.7312259e-05
2.1803594e-05
2.738458e-05
3.4033822e-05
4.1727413e-05
5.0437665e-05
6.0135663e-05
1.0204603e-05
1.1310088e-05
1.3541271e-05
1.6878333e-05
2.1308026e-05
2.6812669e-05
3.3370997e-05
4.0959394e-05
4.9550661e-05
5.9116292e-05
9.8784493e-06
1.0968838e-05
1.3169584e-05
1.6461099e-05
2.0830447e-05
2.6260337e-05
3.2729708e-05
4.0215243e-05
4.8690187e-05
5.812644e-05
9.5662405e-06
1.0641859e-05
1.2812827e-05
1.6059787e-05
2.0370077e-05
2.5726786e-05
3.210912e-05
3.9494054e-05
4.7855244e-05
5.7164988e-05
9.2672536e-06
1.0328421e-05
1.2470255e-05
1.5673623e-05
1.9926107e-05
2.5211162e-05
3.1508314e-05
3.8794826e-05
4.7044729e-05
5.6230709e-05
8.9807978e-06
1.0027822e-05
1.2141138e-05
1.5301841e-05
1.949772e-05
2.4712587e-05
3.0926329e-05
3.8116486e-05
4.6257358e-05
5.5321911e-05
8.7060572e-06
9.7392239e-06
1.1824593e-05
1.4943469e-05
1.9083803e-05
2.4229726e-05
3.0361484e-05
3.7456426e-05
4.5488417e-05
5.4430338e-05
8.4417368e-06
9.4612405e-06
1.1519021e-05
1.4596545e-05
1.8681814e-05
2.3759165e-05
2.9809052e-05
3.6808993e-05
4.473344e-05
5.355572e-05
8.186885e-06
9.1928089e-06
1.122321e-05
1.4259796e-05
1.829072e-05
2.3300631e-05
2.9270332e-05
3.6177577e-05
4.3997125e-05
5.2702659e-05
7.9416672e-06
8.9342886e-06
1.0937878e-05
1.3934383e-05
1.7912112e-05
2.2856007e-05
2.8747217e-05
3.5563735e-05
4.3280656e-05
5.1872064e-05
7.7061997e-06
8.6857954e-06
1.0663133e-05
1.3620399e-05
1.7546059e-05
2.2425341e-05
2.8239732e-05
3.4967494e-05
4.2584066e-05
5.1063923e-05
7.480186e-06
8.4470406e-06
1.03987e-05
1.3317589e-05
1.7192333e-05
2.2008427e-05