/*--------------------------------*- C++ -*----------------------------------*\
  =========                 |
  \\      /  F ield         | OpenFOAM: The Open Source CFD Toolbox
   \\    /   O peration     | Website:  https://openfoam.org
    \\  /    A nd           | Version:  7
     \\/     M anipulation  |
\*---------------------------------------------------------------------------*/
FoamFile
{
    version     2.0;
    format      ascii;
    class       volScalarField;
    location    "80000";
    object      alphat;
}
// * * * * * * * * * * * * * * * * * * * * * * * * * * * * * * * * * * * * * //

dimensions      [1 -1 -1 0 0 0 0];

internalField   nonuniform List<scalar> 
87000
(
0.0053032256
0.0050152826
0.0044658937
0.0037355235
0.0029055524
0.0020440959
0.0011906314
0.00048330215
0.00012350518
3.5547467e-05
0.0040996838
0.0038681919
0.0034259516
0.0028590314
0.0022278951
0.0015820332
0.00095884891
0.00044631971
0.00017307945
8.19273e-05
0.003446991
0.003263453
0.0029071769
0.0024479068
0.0019331395
0.001400522
0.00088863202
0.00046609163
0.00022279193
0.00012595106
0.0029984163
0.0028436556
0.0025413708
0.0021511655
0.0017151145
0.001265809
0.00083851292
0.00048705635
0.00026912459
0.00016902144
0.0026613837
0.0025269011
0.0022632039
0.0019230249
0.0015454519
0.0011610045
0.00080068247
0.00050691014
0.00031183973
0.00021115253
0.0023967349
0.0022780187
0.0020445945
0.0017436441
0.0014125106
0.001079311
0.00077254508
0.00052380601
0.00035082936
0.00025212084
0.0021831979
0.0020774709
0.001869064
0.0016005878
0.0013070183
0.0010159369
0.00075207605
0.00053925114
0.00038610905
0.00029118381
0.0020075623
0.0019129356
0.0017257198
0.0014850965
0.0012226597
0.0009665192
0.00073769117
0.00055371966
0.00041791878
0.00032788441
0.0018609184
0.0017758108
0.0016071251
0.0013898893
0.0011547835
0.0009277176
0.00073016716
0.00056757402
0.00044676345
0.00036225209
0.0017369945
0.0016601589
0.0015079369
0.0013108011
0.0010994951
0.00089728676
0.00072387697
0.00058100588
0.00047316829
0.00039434848
0.0016312414
0.0015616813
0.0014237333
0.0012447335
0.0010542371
0.00087359549
0.00072042908
0.00059413386
0.00049752282
0.00042432325
0.0015400427
0.0014772539
0.0013511929
0.0011889339
0.0010167325
0.00085499644
0.00071926012
0.0006070411
0.00052019399
0.00045236691
0.0014608991
0.0014043774
0.001288778
0.0011415382
0.00098563058
0.0008407581
0.00071990821
0.00061976797
0.00054143047
0.00047874052
0.0013917489
0.0013410214
0.0012348451
0.001100971
0.00095976221
0.00083357926
0.00072200024
0.00063230287
0.00056147048
0.00050357659
0.0013311282
0.0012846512
0.0011878382
0.0010661021
0.00093831785
0.00082523998
0.00072524598
0.0006447401
0.00058058306
0.00052712601
0.0012778093
0.0012347448
0.0011467309
0.0010359687
0.00092050702
0.00081926432
0.00072953481
0.00065714929
0.00059892014
0.00054955436
0.0012307837
0.001190553
0.0011106764
0.001009928
0.00090568084
0.00081521524
0.00073458086
0.00066946041
0.00061664368
0.00057097618
0.0011892849
0.0011518204
0.0010790425
0.00098743046
0.00089350938
0.00081278931
0.00074032336
0.00068167874
0.00063370716
0.00059150837
0.0011525729
0.0011175033
0.0010513216
0.00096814259
0.00088365583
0.00081178834
0.00074668794
0.00069384812
0.00065020593
0.00061136177
0.001120138
0.0010872601
0.0010271299
0.0009518942
0.00087608024
0.00081206799
0.00075348584
0.00070592388
0.00066618771
0.00063047985
0.0010915864
0.0010605324
0.001005852
0.00093801955
0.00087623981
0.00081329191
0.00076068705
0.00071786823
0.00068184647
0.00064891354
0.0010664297
0.0010368634
0.00098719357
0.0009261734
0.00087158515
0.0008153158
0.00076824983
0.00072976385
0.00069710693
0.00066679584
0.0010433222
0.0010159754
0.00097094661
0.00091624602
0.0008684795
0.00081819223
0.00077615545
0.00074163848
0.00071203804
0.00068420632
0.0010227904
0.00099767109
0.00095691986
0.00090804002
0.00086657436
0.00082172047
0.0007843264
0.00075353425
0.00072664175
0.00070116989
0.0010047032
0.00098171204
0.00094492511
0.00090150009
0.00086582739
0.00082593817
0.00079273179
0.00076534133
0.00074110748
0.00071780309
0.00098886773
0.00096791042
0.00093479324
0.00089634337
0.00086606874
0.00083072633
0.0008013513
0.0007770093
0.00075531351
0.00073407662
0.00097511865
0.0009560981
0.00092643109
0.00089259098
0.00086720363
0.00083603132
0.00081016565
0.0007885547
0.00076925557
0.00074999602
0.00096332345
0.00094618023
0.00091952283
0.00088996789
0.00086918566
0.00084181429
0.0008191611
0.00080025407
0.00078295452
0.00076559007
0.00095335674
0.00093786723
0.00091427408
0.00088856292
0.00087196556
0.0008480323
0.00082837747
0.00081184617
0.00079647469
0.00078088344
0.00094497818
0.00093124388
0.00091035205
0.00088809136
0.00087545556
0.00085465603
0.00083775196
0.00082332889
0.00080994301
0.00079590074
0.00093814024
0.00092605802
0.00090769918
0.00088859981
0.00087959919
0.00086165503
0.0008471742
0.00083473569
0.00082322295
0.00081070857
0.00093299276
0.0009223059
0.00090616102
0.00088997097
0.00088435648
0.00086901341
0.0008566509
0.00084632157
0.00083633076
0.00082534132
0.00092922529
0.00091975938
0.00090572573
0.00089216942
0.00088970017
0.00087679351
0.00086649223
0.00085782068
0.00084927386
0.00083975635
0.00092684388
0.00091843783
0.00090628615
0.00089509904
0.00089557949
0.00088484505
0.00087636629
0.00086924462
0.00086218789
0.00085400724
0.00092578422
0.00091825276
0.00090774499
0.00089870283
0.00090195727
0.00089307677
0.00088628613
0.00088064431
0.00087507563
0.00086813395
0.00092599262
0.0009190852
0.00091004896
0.0009029578
0.00090893819
0.00090162435
0.00089640081
0.00089223314
0.00088784531
0.00088209658
0.00092723867
0.00092086528
0.00091314535
0.00090780255
0.000916284
0.00091057085
0.00090672453
0.00090376218
0.00090050123
0.00089594074
0.0009292917
0.00092352755
0.00091693686
0.00091330913
0.00092389918
0.00091964718
0.00091707469
0.00091525427
0.00091306866
0.00090970832
0.00093214058
0.00092696559
0.00092144638
0.0009192425
0.00093208596
0.00092892003
0.00092748382
0.00092677802
0.00092571426
0.00092336488
0.00093578533
0.00093120664
0.0009266572
0.00092546026
0.00094064267
0.00093866272
0.00093824681
0.00093850823
0.00093830626
0.0009369601
0.00094040075
0.00093614743
0.00093220956
0.00093234294
0.00094940893
0.00094851224
0.00094905842
0.00095020977
0.00095090025
0.00095050033
0.0009455414
0.00094148008
0.00093831175
0.00093955967
0.00095867289
0.00095847419
0.000959915
0.00096190407
0.00096349186
0.00096396402
0.00095125625
0.00094753099
0.00094508025
0.00094697536
0.00096824539
0.00096888978
0.00097095512
0.00097364123
0.00097607357
0.00097740579
0.0009578517
0.00095412575
0.00095222884
0.00095497179
0.0009778544
0.00097927305
0.00098207098
0.00098541333
0.00098860164
0.00099074686
0.00096452339
0.00096078856
0.0009595994
0.00096258566
0.00098725733
0.00098934144
0.00099304482
0.00099716015
0.0010011037
0.001004082
0.00097164594
0.00096810116
0.00096726017
0.00097060623
0.00097563934
0.0010002951
0.0010044216
0.0010092885
0.001013919
0.0010176295
0.00097950193
0.00097601788
0.00097565717
0.00097999978
0.00098549444
0.0010119084
0.0010163481
0.0010216222
0.0010267993
0.0010311881
0.00098785279
0.00098456034
0.00098496172
0.00098920972
0.00099530557
0.0010234117
0.001028276
0.0010339903
0.0010396729
0.0010446925
0.00099712398
0.00099379735
0.00099441674
0.00099851451
0.0010051858
0.0010351222
0.0010403718
0.0010464585
0.0010526107
0.0010582164
0.001006643
0.0010031976
0.0010041233
0.0010081289
0.0010150138
0.001046875
0.0010524458
0.0010588821
0.0010655128
0.0010716286
0.0010164629
0.0010128644
0.0010140109
0.0010173776
0.0010246167
0.0010582309
0.0010642218
0.0010712061
0.0010783937
0.0010851101
0.0010271826
0.0010226217
0.0010238165
0.0010267388
0.0010346737
0.0010433442
0.0010768099
0.0010840893
0.0010916845
0.0010988867
0.0010381765
0.001032748
0.0010343892
0.0010371544
0.0010458775
0.0010548578
0.0010900348
0.0010974256
0.0011052126
0.0011127842
0.0010498198
0.0010436375
0.0010455197
0.0010479931
0.0010571371
0.0010659537
0.0011030186
0.0011105039
0.0011185176
0.0011264624
0.0010618177
0.0010547737
0.0010567115
0.0010591114
0.0010677147
0.001076449
0.0011147945
0.001123268
0.001131677
0.0011400722
0.001074045
0.0010660379
0.0010679784
0.0010703884
0.0010780487
0.0010874236
0.0010976677
0.0011366426
0.0011452389
0.0011539601
0.0010865876
0.0010775399
0.0010792076
0.0010820911
0.0010890678
0.0010990582
0.001109262
0.0011500488
0.0011587675
0.0011677897
0.0010994464
0.0010893953
0.0010906503
0.001094054
0.0011002364
0.0011105231
0.0011207442
0.001131916
0.0011728507
0.0011820072
0.0011126745
0.0011016107
0.0011025714
0.0011065183
0.0011119339
0.0011227643
0.0011330617
0.001144259
0.0011872058
0.0011963005
0.0011262952
0.0011142171
0.001115062
0.0011191879
0.0011238115
0.0011342975
0.0011448822
0.0011557317
0.0011918598
0.0012101252
0.0011402107
0.0011269755
0.0011277399
0.0011319182
0.0011362923
0.0011456332
0.0011564692
0.0011672367
0.001178398
0.0012239486
0.0011543162
0.0011398993
0.0011405542
0.0011446987
0.0011490508
0.0011571715
0.0011684313
0.0011790335
0.0011903467
0.0012015453
0.0011685889
0.0011529873
0.0011535339
0.0011577042
0.0011620464
0.0011690465
0.0011801803
0.0011911697
0.0012023416
0.0012136168
0.001183086
0.0011667967
0.0011667077
0.0011706941
0.0011752331
0.0011811097
0.0011918959
0.0012032656
0.0012141165
0.0012252239
0.0011976867
0.0011806647
0.0011799121
0.001183374
0.0011883761
0.001193969
0.0012033669
0.0012148327
0.0012255555
0.0012362817
0.0012123666
0.001194524
0.0011931503
0.0011958703
0.0012012304
0.0012065596
0.0012143558
0.0012251547
0.0012360893
0.0012462796
0.0012270814
0.001208361
0.0012064756
0.001208777
0.0012140791
0.0012192097
0.0012254065
0.0012357411
0.0012467071
0.0012570336
0.0012418318
0.0012222685
0.0012198852
0.0012219029
0.0012271536
0.0012321197
0.0012382636
0.0012470445
0.0012578195
0.0012690136
0.0012566303
0.001236447
0.0012334203
0.0012352397
0.0012399259
0.0012453793
0.0012514371
0.0012589293
0.0012696084
0.0012808091
0.0012716004
0.0012531043
0.0012471216
0.0012488177
0.0012529134
0.0012589579
0.0012650853
0.0012722134
0.0012819245
0.0012931384
0.0012866377
0.0012698119
0.00126114
0.0012626861
0.0012663783
0.0012729382
0.0012790436
0.0012862457
0.0012946367
0.0013057792
0.0013010226
0.0012866301
0.0012755903
0.0012770056
0.0012806393
0.0012870658
0.0012933652
0.001300536
0.0013086392
0.0013186999
0.0013158463
0.0013037143
0.0012910124
0.0012917334
0.001295205
0.0013009671
0.0013079207
0.0013151074
0.00132314
0.0013319037
0.0013309985
0.0013209705
0.00130671
0.0013068268
0.0013100576
0.0013151579
0.0013227622
0.0013298379
0.0013378317
0.0013464641
0.0013465439
0.0013384495
0.0013226478
0.0013221449
0.0013251906
0.0013300538
0.0013375236
0.0013447673
0.0013525765
0.0013610945
0.0013624212
0.0013561336
0.0013388709
0.0013377503
0.00134052
0.0013453289
0.0013519761
0.0013597642
0.0013674344
0.0013757653
0.0013786371
0.0013740043
0.0013552864
0.0013535718
0.0013563519
0.0013607879
0.0013665525
0.0013748867
0.0013823448
0.0013904467
0.0013951164
0.0013920497
0.0013744729
0.0013698552
0.0013722861
0.0013763318
0.0013818079
0.0013893324
0.0013972658
0.0014051026
0.0014116522
0.0014100533
0.0013940627
0.0013867795
0.0013882701
0.0013919221
0.0013972019
0.0014037326
0.0014121521
0.0014196947
0.0014282315
0.0014280167
0.0014134875
0.001403659
0.001404234
0.0014076202
0.0014125589
0.0014184271
0.0014262265
0.0014341918
0.0014448072
0.0014457696
0.0014326794
0.0014204424
0.0014201367
0.0014234118
0.0014278393
0.0014334385
0.0014401388
0.0014484202
0.0014613832
0.0014622031
0.0014516382
0.0014371206
0.001435963
0.0014390972
0.001443009
0.0014483164
0.0014542422
0.0014617718
0.0014779138
0.0014786027
0.0014703347
0.0014545083
0.0014526686
0.0014546173
0.0014582022
0.0014630037
0.0014685821
0.0014749417
0.0014942246
0.001494794
0.0014886457
0.0014742741
0.0014690385
0.0014698575
0.0014732284
0.0014774103
0.0014826346
0.0014883315
0.0015101901
0.0015106549
0.0015064519
0.0014933966
0.0014849915
0.0014847444
0.001487894
0.0014915464
0.0014963301
0.0015016213
0.0015257773
0.0015261516
0.0015237025
0.0015118371
0.0015004898
0.0014998883
0.0015021429
0.0015055105
0.0015096066
0.0015144792
0.001540936
0.0015412297
0.0015403454
0.0015295504
0.0015156313
0.0015149172
0.0015159038
0.0015189778
0.0015224429
0.001526837
0.0015555273
0.0015557472
0.0015562521
0.0015464461
0.0015337574
0.0015292784
0.0015290648
0.0015318396
0.0015349552
0.0015386053
0.0015694245
0.0015695769
0.0015699444
0.0015624053
0.0015508164
0.0015428702
0.0015423685
0.0015440034
0.001546767
0.0015497953
0.0015825816
0.0015826712
0.001582911
0.0015773803
0.0015667717
0.0015556464
0.0015550926
0.0015554082
0.0015578181
0.0015604514
0.0015948906
0.0015949245
0.0015950434
0.0015912657
0.0015815494
0.0015697853
0.0015668797
0.0015662642
0.0015680086
0.0015702396
0.0016062003
0.0016061823
0.0016061877
0.0016039347
0.0015950282
0.0015841763
0.0015776089
0.0015768694
0.001577224
0.0015790562
0.0016163948
0.0016163298
0.001616234
0.0016152924
0.0016071068
0.0015970653
0.0015871887
0.0015863148
0.0015854005
0.0015868249
0.0016253727
0.0016252651
0.0016250768
0.0016247879
0.0016176801
0.001608377
0.0015975492
0.001594506
0.0015934163
0.0015934322
0.001633009
0.0016328612
0.0016325849
0.0016321641
0.0016266458
0.0016180152
0.0016078981
0.001601324
0.0016000457
0.001598768
0.0016391854
0.0016390003
0.0016386417
0.0016380977
0.0016339116
0.0016258719
0.0016163773
0.0016066711
0.0016052047
0.0016036027
0.001643769
0.0016435491
0.0016431134
0.0016424538
0.0016393529
0.0016318235
0.0016229015
0.0016127501
0.0016087812
0.0016069568
0.0016466132
0.0016463608
0.0016458529
0.0016450849
0.0016428391
0.0016357568
0.0016273515
0.001617724
0.0016106459
0.0016086043
0.0016475873
0.0016473052
0.0016467309
0.001645863
0.0016442544
0.0016375652
0.0016296142
0.001620449
0.0016106949
0.0016084454
0.0016465738
0.0016462643
0.0016456289
0.0016446684
0.0016433754
0.0016371374
0.0016295796
0.0016208458
0.0016110465
0.0016063792
0.0016434631
0.0016431282
0.0016424361
0.0016413893
0.0016399815
0.0016343802
0.0016271693
0.001618823
0.0016094057
0.0016022925
0.0016380714
0.001637713
0.0016369682
0.0016358416
0.0016343281
0.0016291339
0.0016222288
0.0016142251
0.0016051489
0.0015960498
0.0016303051
0.001629926
0.0016291345
0.001627937
0.0016263295
0.001621318
0.0016146841
0.001606984
0.0015982272
0.0015885086
0.0016200563
0.0016196586
0.0016188254
0.0016175645
0.0016158726
0.0016108371
0.0016044463
0.0015970192
0.0015885627
0.0015791432
0.0016072246
0.0016068108
0.0016059412
0.0016046253
0.0016027637
0.0015976109
0.0015914428
0.001584267
0.0015760885
0.0015669497
0.0015917466
0.0015913194
0.0015904194
0.001589057
0.0015865748
0.0015815986
0.0015756363
0.0015686948
0.0015607773
0.0015519096
0.0015735868
0.0015731489
0.0015722247
0.0015708262
0.0015675974
0.0015627863
0.0015570203
0.0015503035
0.0015426374
0.0015340401
0.0015527522
0.0015523075
0.0015513674
0.0015495771
0.0015458559
0.001541206
0.0015356327
0.0015291375
0.0015217213
0.0015134042
0.0015293029
0.0015288537
0.0015277171
0.0015250252
0.0015214337
0.0015169478
0.0015115695
0.0015053006
0.0014981463
0.001490117
0.0015030883
0.0015022571
0.0015005359
0.0014979446
0.0014944894
0.0014901731
0.0014850014
0.0014789729
0.0014720881
0.0014643661
0.0014734957
0.0014726997
0.0014710511
0.00146857
0.0014652615
0.0014611287
0.0014561738
0.0014503985
0.0014438045
0.001436419
0.00144191
0.0014411526
0.0014395822
0.0014372185
0.0014340668
0.0014301302
0.0014254117
0.0014199158
0.0014136461
0.0014066349
0.0014087315
0.0014080157
0.0014065313
0.0014042978
0.0014013211
0.0013976045
0.0013931513
0.0013879654
0.0013820527
0.0013758062
0.0013744842
0.0013738147
0.0013724266
0.0013703378
0.0013675541
0.0013640798
0.0013599193
0.0013550789
0.0013495737
0.0013449548
0.0013397952
0.0013391767
0.0013378956
0.0013359686
0.0013334017
0.0013301997
0.0013263676
0.001321912
0.0013168579
0.0013138252
0.001305412
0.0013048492
0.0013036858
0.0013019365
0.001299608
0.0012967069
0.0012932384
0.0012892126
0.0012852278
0.0012830837
0.0012721758
0.0012716742
0.0012706403
0.0012690876
0.001267022
0.0012644498
0.001261378
0.0012578212
0.0012552482
0.0012534707
0.0012409931
0.0012405571
0.0012396625
0.0012383205
0.0012365371
0.0012343186
0.0012316721
0.0012286159
0.0012271494
0.0012257756
0.0012128147
0.0012124473
0.0012116987
0.0012105774
0.0012090888
0.0012072395
0.0012050375
0.0012026252
0.0012017544
0.0012008054
0.0011885459
0.001188248
0.0011876473
0.0011867495
0.0011855596
0.0011840832
0.0011823276
0.0011803191
0.0011798311
0.0011793076
0.0011689641
0.0011687336
0.0011682762
0.0011675946
0.0011666926
0.0011655749
0.0011642473
0.0011627199
0.0011620133
0.0011618893
0.0011546082
0.0011544391
0.0011541122
0.001153627
0.0011529858
0.0011521914
0.0011512482
0.001150161
0.0011489367
0.001148919
0.001145668
0.0011455504
0.0011453321
0.0011450099
0.0011445843
0.0011440568
0.0011434288
0.0011427024
0.0011418796
0.0011409624
0.0011419016
0.0011418222
0.0011416833
0.0011414796
0.00114121
0.0011408736
0.0011404695
0.0011399967
0.0011394536
0.0011388381
0.0011426262
0.001142569
0.0011424747
0.0011423371
0.0011421533
0.00114192
0.001141634
0.0011412915
0.0011408879
0.0011404173
0.0011467912
0.0011467393
0.0011466532
0.0011465264
0.0011463548
0.0011461342
0.0011458593
0.0011455233
0.0011451183
0.0011446369
0.0011531399
0.0011530778
0.0011529662
0.0011527993
0.0011525726
0.0011522808
0.0011519175
0.0011514751
0.0011509448
0.0011503166
0.0011604072
0.0011603226
0.0011601585
0.0011599106
0.0011595746
0.0011591452
0.0011586155
0.0011579776
0.0011572224
0.0011563394
0.0011674513
0.0011673562
0.001167145
0.0011667893
0.0011663093
0.0011657
0.0011649543
0.0011640657
0.0011630257
0.0011618228
0.0011730731
0.001172939
0.0011726589
0.001172234
0.0011716614
0.0011709365
0.0011700538
0.0011690067
0.0011677043
0.0011661553
0.0011773651
0.0011771919
0.0011768253
0.0011762694
0.0011755227
0.0011745821
0.0011734436
0.0011721025
0.0011705535
0.0011687908
0.001180138
0.0011799283
0.0011794804
0.0011788013
0.0011778913
0.0011767488
0.0011753718
0.0011737574
0.0011718999
0.0011697987
0.0011814033
0.0011811606
0.0011806401
0.0011798519
0.0011787959
0.0011774729
0.0011758831
0.0011740247
0.0011718974
0.0011695015
0.0011813117
0.0011810402
0.0011804561
0.001179572
0.0011783906
0.0011769137
0.0011751427
0.0011730793
0.0011707253
0.0011680827
0.0011800862
0.0011797911
0.0011791545
0.0011781915
0.001176906
0.0011753011
0.0011733799
0.0011711459
0.0011686031
0.0011657558
0.0011779614
0.0011776473
0.001176969
0.001175943
0.0011745745
0.0011728679
0.0011708256
0.0011684541
0.0011657596
0.0011627484
0.0011751628
0.0011748335
0.0011741214
0.0011730447
0.0011716094
0.001169821
0.0011676853
0.0011652088
0.0011623989
0.0011592597
0.0011718865
0.0011715453
0.0011708069
0.0011696908
0.0011682037
0.0011663521
0.0011641426
0.0011615833
0.0011586829
0.001155451
0.0011682911
0.0011679414
0.0011671831
0.001166037
0.0011645107
0.0011626112
0.0011603464
0.0011577249
0.0011547569
0.0011514531
0.0011644839
0.0011641282
0.0011633574
0.0011621928
0.0011606424
0.0011587139
0.0011564102
0.0011537435
0.0011507266
0.0011473711
0.0011605698
0.0011602094
0.0011594283
0.0011582482
0.0011566777
0.0011547248
0.0011523988
0.0011497101
0.0011466657
0.0011432789
0.0011566194
0.0011562559
0.0011554677
0.0011542771
0.001152693
0.0011507238
0.0011483793
0.0011456703
0.0011426093
0.0011392074
0.0011526833
0.0011523178
0.0011515252
0.001150328
0.0011487354
0.0011467563
0.0011444007
0.0011416799
0.0011386068
0.0011351951
0.0011487784
0.0011484125
0.0011476191
0.0011464207
0.0011448268
0.0011428466
0.0011404903
0.0011377666
0.0011346884
0.0011312724
0.0011449357
0.0011445686
0.0011437727
0.0011425707
0.001140974
0.0011389926
0.0011366355
0.0011339147
0.0011308436
0.0011274368
0.0011411737
0.0011408071
0.0011400119
0.0011388111
0.0011372144
0.0011352312
0.0011328756
0.001130158
0.0011270912
0.00112369
0.0011374663
0.0011371013
0.0011363096
0.0011351141
0.0011335246
0.0011315507
0.0011292034
0.0011264969
0.0011234452
0.0011200571
0.0011338385
0.0011334746
0.0011326853
0.0011314934
0.0011299088
0.0011279412
0.0011256014
0.0011229021
0.0011198587
0.0011164861
0.0011302843
0.0011299226
0.0011291381
0.0011279536
0.001126379
0.0011244239
0.0011220994
0.0011194142
0.0011163807
0.0011130197
0.0011267878
0.0011264276
0.0011256463
0.0011244665
0.0011228979
0.0011209503
0.0011186349
0.0011159642
0.0011129522
0.0011096142
0.0011241137
0.0011235483
0.0011223534
0.0011210649
0.0011195075
0.0011175736
0.0011152732
0.0011126128
0.0011096126
0.0011062876
0.0011218493
0.0011212835
0.0011200885
0.0011182889
0.0011161443
0.0011142182
0.0011119282
0.001109287
0.0011063088
0.0011030088
0.001119597
0.0011190329
0.0011178415
0.0011160476
0.0011136618
0.0011109489
0.0011086765
0.0011060522
0.0011030851
0.0010997972
0.0011173006
0.001116738
0.0011155492
0.0011137598
0.0011113806
0.0011084235
0.0011054195
0.001102809
0.0010998653
0.0010966036
0.0011149739
0.0011144149
0.0011132354
0.0011114585
0.0011090949
0.0011061569
0.0011026591
0.0010996451
0.0010967253
0.0010934864
0.0011126315
0.0011120739
0.0011108974
0.0011091288
0.0011067781
0.001103856
0.0011003774
0.0010964921
0.0010935868
0.0010903679
0.0011102231
0.001109668
0.0011084969
0.0011067366
0.001104401
0.0011015007
0.0010980489
0.0010940645
0.0010904692
0.0010872696
0.0011077559
0.0011072051
0.0011060431
0.0011042966
0.0011019776
0.001099099
0.0010956772
0.0010917268
0.0010873702
0.0010841904
0.0011052254
0.0011046781
0.0011035236
0.0011017884
0.0010994867
0.0010966339
0.0010932517
0.0010893472
0.0010849366
0.0010811287
0.0011026423
0.0011020988
0.0011009523
0.0010992293
0.0010969441
0.0010941123
0.0010907575
0.0010868989
0.0010825464
0.0010780795
0.0011000102
0.0010994708
0.0010983327
0.0010966226
0.0010943548
0.0010915451
0.0010882124
0.0010843989
0.0010800989
0.0010753387
0.0010973068
0.0010967734
0.0010956478
0.0010939566
0.0010917139
0.0010889353
0.0010856307
0.0010818513
0.0010776069
0.0010729083
0.0010945408
0.0010940122
0.0010928966
0.0010912205
0.0010889981
0.0010862454
0.0010829811
0.0010792417
0.0010750666
0.0010704372
0.0010917347
0.0010912112
0.001090106
0.0010884455
0.0010862443
0.0010835184
0.0010802867
0.0010765718
0.0010724575
0.0010679014
0.0010888617
0.0010883453
0.0010872548
0.0010856165
0.0010834445
0.0010807548
0.0010775609
0.0010738856
0.0010698126
0.0010653257
0.0010859326
0.0010854221
0.0010843437
0.0010827236
0.0010805762
0.0010779174
0.0010747662
0.0010711446
0.00106712
0.0010627141
0.0010829772
0.0010824727
0.0010814066
0.0010798051
0.0010776828
0.0010750558
0.0010719432
0.0010683672
0.0010643781
0.0010600425
0.0010799357
0.0010794397
0.0010783911
0.0010768158
0.0010747281
0.0010721437
0.0010690813
0.0010655626
0.0010616149
0.0010573479
0.0010768734
0.0010763842
0.0010753496
0.0010737955
0.0010717362
0.0010691877
0.0010661688
0.0010627013
0.00105881
0.0010546059
0.0010737522
0.0010732722
0.0010722565
0.0010707307
0.0010687086
0.0010662058
0.0010632406
0.0010598275
0.0010559944
0.0010518363
0.00107059
0.0010701176
0.0010691176
0.0010676152
0.0010656245
0.0010631612
0.0010602437
0.0010568931
0.0010531334
0.0010490346
0.0010673891
0.0010669266
0.0010659466
0.0010644742
0.0010625229
0.001060108
0.0010572405
0.0010539433
0.0010502446
0.0010461954
0.0010641333
0.0010636789
0.0010627156
0.0010612681
0.0010593501
0.0010569768
0.001054166
0.0010509379
0.0010473154
0.0010433337
0.0010608513
0.0010604072
0.0010594649
0.0010580488
0.0010561721
0.0010538494
0.0010510864
0.0010479126
0.0010443514
0.0010404271
0.0010575102
0.0010570745
0.0010561491
0.0010547584
0.0010529153
0.0010506344
0.0010479326
0.0010448291
0.0010413455
0.0010375049
0.0010541464
0.0010537213
0.0010528174
0.0010514585
0.0010496574
0.0010474279
0.0010447809
0.0010417342
0.001038314
0.0010345424
0.0010507455
0.0010503291
0.0010494429
0.0010481104
0.0010463441
0.0010441576
0.0010415662
0.0010385804
0.0010352274
0.0010315286
0.0010472959
0.0010468888
0.0010460214
0.001044717
0.0010429876
0.0010408464
0.0010383085
0.0010353845
0.0010320918
0.0010284577
0.001043801
0.0010434023
0.0010425521
0.0010412732
0.0010395771
0.0010374766
0.0010349863
0.0010321227
0.0010289042
0.0010253501
0.0010402771
0.0010398885
0.0010390588
0.0010378104
0.0010361544
0.001034103
0.0010316701
0.0010288715
0.0010257227
0.0010222215
0.0010367546
0.0010363732
0.0010355582
0.0010343313
0.0010327035
0.0010306863
0.0010282929
0.0010255385
0.0010224396
0.0010190137
0.0010331594
0.0010327875
0.0010319917
0.0010307935
0.0010292033
0.0010272322
0.0010248929
0.0010221996
0.0010191681
0.001015815
0.001029586
0.0010292232
0.001028446
0.0010272755
0.0010257201
0.0010237804
0.0010214772
0.0010188239
0.0010158353
0.0010125271
0.0010259551
0.0010255986
0.0010248342
0.0010236824
0.0010221529
0.0010202556
0.0010180021
0.001015405
0.0010124786
0.0010092377
0.0010223258
0.0010219776
0.0010212302
0.0010201037
0.0010186074
0.001016751
0.0010145453
0.0010120025
0.0010091183
0.0010059187
0.0010186956
0.0010183533
0.0010176176
0.0010165085
0.0010150347
0.0010132052
0.0010110303
0.0010085215
0.0010056913
0.001002553
0.0010150263
0.0010146915
0.0010139711
0.0010128848
0.001011441
0.0010096485
0.0010075169
0.0010050572
0.0010022816
0.00099920254
0.0010114923
0.0010110548
0.0010103492
0.0010092849
0.0010078701
0.0010061111
0.001004009
0.0010015821
0.00099884158
0.00099579956
0.0010080645
0.0010073948
0.0010066995
0.0010056501
0.0010042547
0.0010025212
0.0010004583
0.00099807599
0.00099538516
0.00099239729
0.0010045981
0.0010039361
0.0010030553
0.0010020257
0.0010006563
0.0009989548
0.0009969296
0.00099459027
0.00099194727
0.00098900702
0.0010011201
0.0010004903
0.0009994348
0.00099842233
0.00099707224
0.00099539408
0.00099339593
0.0009910869
0.00098847701
0.00098557692
0.00099758773
0.0009969869
0.0009957866
0.00099478983
0.00099346354
0.00099181473
0.00098985122
0.00098758182
0.0009850162
0.00098216467
0.0009940469
0.00099347498
0.00099227736
0.00099118311
0.00098987967
0.00098825909
0.00098632896
0.00098409778
0.00098157493
0.00097876028
0.00099050338
0.00098995886
0.00098881463
0.00098759207
0.00098630533
0.00098470529
0.00098279936
0.00098059591
0.00097810425
0.00097533441
0.00098690992
0.00098639143
0.00098530168
0.00098398214
0.00098271701
0.00098114376
0.00097926957
0.00097710259
0.00097465191
0.00097192733
0.00098332124
0.00098282852
0.00098179083
0.00098039854
0.00097915406
0.00097760643
0.00097576263
0.00097363065
0.00097121935
0.0009685383
0.00097973874
0.00097927067
0.00097828277
0.00097683984
0.00097561522
0.00097409221
0.00097227766
0.00097017937
0.00096780601
0.00096516694
0.00097616352
0.00097571902
0.00097477883
0.0009733623
0.00097210002
0.00097060082
0.00096881454
0.00096674882
0.00096441214
0.00096181364
0.00097259301
0.00097217114
0.00097127672
0.00096992827
0.00096860458
0.00096712851
0.00096536972
0.00096333562
0.00096103452
0.00095847518
0.00096903188
0.0009686317
0.00096778122
0.00096649812
0.0009651319
0.00096367422
0.00096193819
0.00095993163
0.00095766338
0.00095514309
0.00096545795
0.00096507729
0.00096426606
0.0009630407
0.00096164531
0.00096021247
0.00095850599
0.00095653357
0.00095430386
0.00095182632
0.00096188496
0.00096152338
0.00096075073
0.00095958265
0.00095817551
0.00095676634
0.00095508803
0.00095314813
0.00095095517
0.00094851846
0.00095832023
0.00095797697
0.00095724141
0.00095612838
0.00095472274
0.00095333665
0.00095168583
0.00094977771
0.00094762067
0.00094522386
0.00095476538
0.00095443969
0.00095373974
0.0009526796
0.00095128772
0.00094992409
0.00094830001
0.00094642277
0.00094430062
0.00094194256
0.0009512226
0.00095091381
0.00095024809
0.00094923883
0.00094788731
0.00094653031
0.00094493235
0.00094308528
0.00094099718
0.00093867689
0.00094769236
0.00094739978
0.00094676693
0.00094580654
0.00094451922
0.00094315465
0.00094158209
0.00093976432
0.00093770926
0.00093543027
0.00094417604
0.000943899
0.00094329764
0.0009423841
0.0009411592
0.00093979872
0.00093825376
0.00093647005
0.00093445638
0.00093222247
0.0009407176
0.00094045284
0.00093987606
0.00093899759
0.00093781535
0.00093646354
0.00093494716
0.00093319651
0.00093122024
0.00092902792
0.00093728448
0.00093702945
0.00093647271
0.0009356246
0.00093448329
0.00093314526
0.00093165692
0.00092993866
0.000927999
0.00092584733
0.00093386764
0.00093362197
0.00093308454
0.00093226569
0.00093116379
0.00092984409
0.00092838319
0.00092669659
0.00092479265
0.00092268061
0.00093046817
0.0009302315
0.00092971264
0.00092892192
0.00092785794
0.00092656065
0.00092512649
0.00092347072
0.00092160155
0.00091952804
0.00092708681
0.00092685879
0.00092635777
0.00092559408
0.00092456652
0.00092329531
0.00092188712
0.00092026129
0.00091842584
0.00091638965
0.00092372439
0.00092350466
0.00092302075
0.00092228296
0.0009212903
0.0009200484
0.0009186653
0.00091706835
0.00091526539
0.00091326513
0.00092038198
0.00092017014
0.00091970252
0.00091898939
0.00091802994
0.0009168212
0.00091546077
0.00091389375
0.00091214273
0.00091020369
0.00091707453
0.00091687259
0.00091642537
0.00091574214
0.00091482113
0.00091365841
0.00091232998
0.00091080727
0.00090909105
0.00090719106
0.00091386691
0.00091366969
0.00091323242
0.0009125647
0.00091166535
0.00091053118
0.00090922335
0.00090773077
0.00090604892
0.00090418745
0.00091066912
0.00091047659
0.00091004926
0.00090939696
0.00090851904
0.000907413
0.00090612709
0.00090466449
0.00090301667
0.0009011932
0.00090748405
0.00090729612
0.00090687851
0.00090624129
0.00090538428
0.00090430564
0.00090304258
0.00090160952
0.00089999518
0.00089820902
0.00090431375
0.00090413029
0.00090372216
0.00090309961
0.00090226291
0.00090121085
0.00089997131
0.00089856721
0.00089698566
0.00089523599
0.00090116002
0.0009009809
0.00090058195
0.00089997362
0.0008991566
0.00089813022
0.00089691469
0.00089553886
0.00089398927
0.00089227512
0.00089802457
0.00089784964
0.00089745956
0.00089686495
0.00089606688
0.00089506521
0.00089387393
0.0008925255
0.00089100683
0.00088932695
0.00089490899
0.00089473807
0.00089435649
0.00089377499
0.00089299502
0.0008920169
0.00089084974
0.00088952749