/*--------------------------------*- C++ -*----------------------------------*\
  =========                 |
  \\      /  F ield         | OpenFOAM: The Open Source CFD Toolbox
   \\    /   O peration     | Website:  https://openfoam.org
    \\  /    A nd           | Version:  7
     \\/     M anipulation  |
\*---------------------------------------------------------------------------*/
FoamFile
{
    version     2.0;
    format      ascii;
    class       volVectorField;
    location    "80000";
    object      C;
}
// * * * * * * * * * * * * * * * * * * * * * * * * * * * * * * * * * * * * * //

dimensions      [0 1 0 0 0 0 0];

internalField   nonuniform List<vector> 
87000
(
(0.00011988579 0.00032947502 1.3800211e-22)
(0.0002797335 0.00032947502 1.8400281e-22)
(0.00045556599 0.00032947502 0)
(0.00063368201 0.00032947502 0)
(0.00081255922 0.00032947502 4.2345192e-23)
(0.00099178242 0.00032947502 -8.0292136e-22)
(0.0011711919 0.00032947502 -4.3808848e-23)
(0.0013507132 0.00032947502 4.4245562e-23)
(0.0015303068 0.00032947502 3.2063816e-21)
(0.0017099499 0.00032947502 0)
(0.00011988579 0.00098963786 -1.3749598e-22)
(0.0002797335 0.00098963786 0)
(0.00045556599 0.00098963786 7.7714401e-24)
(0.00063368201 0.00098963786 -1.2583093e-22)
(0.00081255922 0.00098963786 1.176002e-21)
(0.00099178242 0.00098963786 1.7804911e-21)
(0.0011711919 0.00098963786 -2.9073821e-21)
(0.0013507132 0.00098963786 -1.264602e-21)
(0.0015303068 0.00098963786 -1.9424571e-22)
(0.0017099499 0.00098963786 3.5783206e-21)
(0.00011988579 0.0016522308 0)
(0.0002797335 0.0016522308 7.7041788e-22)
(0.00045556599 0.0016522308 9.2728829e-22)
(0.00063368201 0.0016522308 5.4443313e-22)
(0.00081255922 0.0016522308 2.1465793e-21)
(0.00099178242 0.0016522308 7.0677371e-22)
(0.0011711919 0.0016522308 -1.8036523e-23)
(0.0013507132 0.0016522308 -1.3516018e-21)
(0.0015303068 0.0016522308 -1.9424571e-22)
(0.0017099499 0.0016522308 3.5647318e-21)
(0.00011988579 0.0023172628 0)
(0.0002797335 0.0023172628 -5.2605941e-22)
(0.00045556599 0.0023172628 9.2407278e-22)
(0.00063368201 0.0023172628 -1.2583093e-22)
(0.00081255922 0.0023172628 1.1688433e-21)
(0.00099178242 0.0023172628 0)
(0.0011711919 0.0023172628 2.7606187e-21)
(0.0013507132 0.0023172628 1.1647085e-21)
(0.0015303068 0.0023172628 -1.9424571e-22)
(0.0017099499 0.0023172628 -3.1063174e-22)
(0.00011988579 0.0029847428 0)
(0.0002797335 0.0029847428 -1.8131827e-22)
(0.00045556599 0.0029847428 7.7714401e-24)
(0.00063368201 0.0029847428 -8.7954235e-22)
(0.00081255922 0.0029847428 2.0429118e-21)
(0.00099178242 0.0029847428 -8.8147593e-22)
(0.0011711919 0.0029847428 4.180593e-21)
(0.0013507132 0.0029847428 -2.5034797e-21)
(0.0015303068 0.0029847428 -1.9424571e-22)
(0.0017099499 0.0029847428 -3.1063174e-22)
(0.00011988579 0.0036546798 1.3548996e-22)
(0.0002797335 0.0036546798 0)
(0.00045556599 0.0036546798 -4.2579642e-22)
(0.00063368201 0.0036546798 -1.2583093e-22)
(0.00081255922 0.0036546798 2.1252211e-21)
(0.00099178242 0.0036546798 0)
(0.0011711919 0.0036546798 -1.8036523e-23)
(0.0013507132 0.0036546798 3.6511488e-21)
(0.0015303068 0.0036546798 -3.4379971e-21)
(0.0017099499 0.0036546798 -3.1063174e-22)
(0.00011988579 0.0043270828 0)
(0.0002797335 0.0043270828 3.5998144e-22)
(0.00045556599 0.0043270828 4.8251911e-22)
(0.00063368201 0.0043270828 -3.2994187e-21)
(0.00081255922 0.0043270828 1.0885027e-22)
(0.00099178242 0.0043270828 7.8541406e-22)
(0.0011711919 0.0043270828 -1.8036523e-23)
(0.0013507132 0.0043270828 0)
(0.0015303068 0.0043270828 2.8550089e-21)
(0.0017099499 0.0043270828 -3.1063174e-22)
(0.00011988579 0.0050019611 1.4155656e-22)
(0.0002797335 0.0050019611 -1.793306e-22)
(0.00045556599 0.0050019611 4.8093481e-22)
(0.00063368201 0.0050019611 5.3303309e-22)
(0.00081255922 0.0050019611 2.1111126e-21)
(0.00099178242 0.0050019611 2.2573316e-21)
(0.0011711919 0.0050019611 -1.8036523e-23)
(0.0013507132 0.0050019611 4.7734692e-21)
(0.0015303068 0.0050019611 -1.9424571e-22)
(0.0017099499 0.0050019611 -3.1063174e-22)
(0.00011988579 0.0056793236 0)
(0.0002797335 0.0056793236 -3.7724351e-22)
(0.00045556599 0.0056793236 7.7714401e-24)
(0.00063368201 0.0056793236 -1.2583093e-22)
(0.00081255922 0.0056793236 1.0617724e-21)
(0.00099178242 0.0056793236 1.649596e-21)
(0.0011711919 0.0056793236 -1.3374671e-21)
(0.0013507132 0.0056793236 -2.4696189e-21)
(0.0015303068 0.0056793236 -2.3954707e-21)
(0.0017099499 0.0056793236 3.484239e-21)
(0.00011988579 0.0063591795 -2.7408501e-22)
(0.0002797335 0.0063591795 7.3196813e-22)
(0.00045556599 0.0063591795 7.7714401e-24)
(0.00063368201 0.0063591795 1.0948612e-21)
(0.00081255922 0.0063591795 3.0465345e-21)
(0.00099178242 0.0063591795 0)
(0.0011711919 0.0063591795 2.5202803e-21)
(0.0013507132 0.0063591795 2.4612312e-21)
(0.0015303068 0.0063591795 -1.3827939e-21)
(0.0017099499 0.0063591795 1.6720805e-21)
(0.00011988579 0.0070415379 4.0612922e-22)
(0.0002797335 0.0070415379 0)
(0.00045556599 0.0070415379 1.7960126e-21)
(0.00063368201 0.0070415379 -1.2583093e-22)
(0.00081255922 0.0070415379 3.0360883e-21)
(0.00099178242 0.0070415379 9.0268943e-23)
(0.0011711919 0.0070415379 1.2917337e-21)
(0.0013507132 0.0070415379 0)
(0.0015303068 0.0070415379 -1.9424571e-22)
(0.0017099499 0.0070415379 3.4578e-21)
(0.00011988579 0.0077264082 0)
(0.0002797335 0.0077264082 1.9897722e-23)
(0.00045556599 0.0077264082 7.7714401e-24)
(0.00063368201 0.0077264082 -7.3170826e-22)
(0.00081255922 0.0077264082 1.1407287e-21)
(0.00099178242 0.0077264082 -6.8084766e-22)
(0.0011711919 0.0077264082 1.28693e-21)
(0.0013507132 0.0077264082 0)
(0.0015303068 0.0077264082 4.9786046e-21)
(0.0017099499 0.0077264082 -5.8516604e-21)
(0.00011988579 0.0084137995 -1.3910819e-22)
(0.0002797335 0.0084137995 -3.5213223e-22)
(0.00045556599 0.0084137995 7.7714401e-24)
(0.00063368201 0.0084137995 -1.2583093e-22)
(0.00081255922 0.0084137995 1.0885027e-22)
(0.00099178242 0.0084137995 8.5855744e-22)
(0.0011711919 0.0084137995 -2.7092638e-21)
(0.0013507132 0.0084137995 2.2536463e-21)
(0.0015303068 0.0084137995 9.8328231e-22)
(0.0017099499 0.0084137995 -3.1063174e-22)
(0.00011988579 0.0091037211 1.3156529e-22)
(0.0002797335 0.0091037211 -2.1521583e-22)
(0.00045556599 0.0091037211 1.3135681e-21)
(0.00063368201 0.0091037211 -7.2727224e-22)
(0.00081255922 0.0091037211 1.0444256e-21)
(0.00099178242 0.0091037211 0)
(0.0011711919 0.0091037211 -1.8036523e-23)
(0.0013507132 0.0091037211 1.826059e-22)
(0.0015303068 0.0091037211 -1.9424571e-22)
(0.0017099499 0.0091037211 -2.2670984e-21)
(0.00011988579 0.0097961824 1.3814137e-22)
(0.0002797335 0.0097961824 0)
(0.00045556599 0.0097961824 -8.7392819e-22)
(0.00063368201 0.0097961824 -7.6908269e-22)
(0.00081255922 0.0097961824 1.0885027e-22)
(0.00099178242 0.0097961824 6.2818448e-21)
(0.0011711919 0.0097961824 -2.7810911e-21)
(0.0013507132 0.0097961824 -1.3011788e-21)
(0.0015303068 0.0097961824 -4.5086948e-21)
(0.0017099499 0.0097961824 -3.1063174e-22)
(0.00011988579 0.010491193 0)
(0.0002797335 0.010491193 5.8210122e-22)
(0.00045556599 0.010491193 8.8639426e-22)
(0.00063368201 0.010491193 1.1122609e-21)
(0.00081255922 0.010491193 1.0885027e-22)
(0.00099178242 0.010491193 0)
(0.0011711919 0.010491193 4.0214785e-21)
(0.0013507132 0.010491193 0)
(0.0015303068 0.010491193 -1.9424571e-22)
(0.0017099499 0.010491193 3.3925464e-21)
(0.00011988579 0.011188761 0)
(0.0002797335 0.011188761 5.4038982e-22)
(0.00045556599 0.011188761 7.7714401e-24)
(0.00063368201 0.011188761 -1.6984719e-22)
(0.00081255922 0.011188761 -8.1646901e-22)
(0.00099178242 0.011188761 1.5141588e-21)
(0.0011711919 0.011188761 2.7261186e-21)
(0.0013507132 0.011188761 0)
(0.0015303068 0.011188761 2.9282761e-21)
(0.0017099499 0.011188761 -3.1063174e-22)
(0.00011988579 0.011888898 -1.2964579e-22)
(0.0002797335 0.011888898 0)
(0.00045556599 0.011888898 8.8027444e-22)
(0.00063368201 0.011888898 -2.6285456e-21)
(0.00081255922 0.011888898 1.0885027e-22)
(0.00099178242 0.011888898 1.5086056e-21)
(0.0011711919 0.011888898 -2.5710613e-21)
(0.0013507132 0.011888898 3.5015382e-21)
(0.0015303068 0.011888898 -1.1704023e-21)
(0.0017099499 0.011888898 -3.1063174e-22)
(0.00011988579 0.012591611 -1.3622892e-22)
(0.0002797335 0.012591611 5.763744e-22)
(0.00045556599 0.012591611 1.2478064e-21)
(0.00063368201 0.012591611 -1.2583093e-22)
(0.00081255922 0.012591611 1.0885027e-22)
(0.00099178242 0.012591611 -9.0268943e-23)
(0.0011711919 0.012591611 1.2537942e-21)
(0.0013507132 0.012591611 0)
(0.0015303068 0.012591611 7.7833074e-22)
(0.0017099499 0.012591611 -3.1063174e-22)
(0.00011988579 0.013296912 1.2869657e-22)
(0.0002797335 0.013296912 5.3468401e-22)
(0.00045556599 0.013296912 1.6978575e-21)
(0.00063368201 0.013296912 -7.1415812e-22)
(0.00081255922 0.013296912 1.0240259e-21)
(0.00099178242 0.013296912 0)
(0.0011711919 0.013296912 -1.2852028e-21)
(0.0013507132 0.013296912 1.0982107e-21)
(0.0015303068 0.013296912 -1.0973386e-23)
(0.0017099499 0.013296912 -2.0446487e-21)
(0.00011988579 0.014004808 0)
(0.0002797335 0.014004808 -8.5483047e-22)
(0.00045556599 0.014004808 4.6086e-22)
(0.00063368201 0.014004808 -1.3862024e-21)
(0.00081255922 0.014004808 1.0885027e-22)
(0.00099178242 0.014004808 -4.74701e-21)
(0.0011711919 0.014004808 3.9512525e-21)
(0.0013507132 0.014004808 -2.3709719e-21)
(0.0015303068 0.014004808 -1.9424571e-22)
(0.0017099499 0.014004808 -3.1063174e-22)
(0.00011988579 0.014715311 0)
(0.0002797335 0.014715311 -1.5044135e-22)
(0.00045556599 0.014715311 1.7285664e-21)
(0.00063368201 0.014715311 -1.2583093e-22)
(0.00081255922 0.014715311 -8.8902734e-22)
(0.00099178242 0.014715311 0)
(0.0011711919 0.014715311 -1.8036523e-23)
(0.0013507132 0.014715311 0)
(0.0015303068 0.014715311 -1.9424571e-22)
(0.0017099499 0.014715311 1.4106894e-21)
(0.00011988579 0.015428428 1.3434436e-22)
(0.0002797335 0.015428428 1.0580815e-21)
(0.00045556599 0.015428428 8.6517021e-22)
(0.00063368201 0.015428428 -1.2583093e-22)
(0.00081255922 0.015428428 1.103396e-21)
(0.00099178242 0.015428428 1.3908744e-21)
(0.0011711919 0.015428428 -1.8036523e-23)
(0.0013507132 0.015428428 -9.1302948e-23)
(0.0015303068 0.015428428 -1.9424571e-22)
(0.0017099499 0.015428428 -3.9244454e-21)
(0.00011988579 0.016144171 -7.0586079e-24)
(0.0002797335 0.016144171 0)
(0.00045556599 0.016144171 2.5282348e-21)
(0.00063368201 0.016144171 2.86092e-21)
(0.00081255922 0.016144171 3.8055469e-21)
(0.00099178242 0.016144171 -1.4757112e-21)
(0.0011711919 0.016144171 2.7519196e-21)
(0.0013507132 0.016144171 -9.9088526e-22)
(0.0015303068 0.016144171 -1.9207173e-21)
(0.0017099499 0.016144171 4.8155229e-21)
(0.00011988579 0.016862549 -7.0586079e-24)
(0.0002797335 0.016862549 -1.8836948e-22)
(0.00045556599 0.016862549 4.5487358e-22)
(0.00063368201 0.016862549 -3.1459669e-21)
(0.00081255922 0.016862549 -7.8966575e-22)
(0.00099178242 0.016862549 3.7660163e-21)
(0.0011711919 0.016862549 -1.2621356e-21)
(0.0013507132 0.016862549 0)
(0.0015303068 0.016862549 -1.9424571e-22)
(0.0017099499 0.016862549 1.3918197e-21)
(0.00011988579 0.017583571 -7.0586079e-24)
(0.0002797335 0.017583571 3.9795444e-23)
(0.00045556599 0.01758357 1.7047085e-21)
(0.00063368201 0.017583571 1.1131996e-21)
(0.00081255922 0.01758357 1.0885027e-22)
(0.00099178242 0.01758357 -8.2272223e-22)
(0.0011711919 0.01758357 -1.8036523e-23)
(0.0013507132 0.01758357 0)
(0.0015303068 0.017583571 -1.9424571e-22)
(0.0017099499 0.017583571 -3.1063174e-22)
(0.00011988579 0.018307246 0)
(0.0002797335 0.018307246 3.5437425e-22)
(0.00045556599 0.018307246 7.7714401e-24)
(0.00063368201 0.018307246 -1.2583093e-22)
(0.00081255922 0.018307246 1.0885027e-22)
(0.00099178242 0.018307246 3.0996058e-21)
(0.0011711919 0.018307246 -1.8036523e-23)
(0.0013507132 0.018307246 1.1616278e-21)
(0.0015303068 0.018307246 2.8222396e-21)
(0.0017099499 0.018307246 1.3793549e-21)
(0.00011988579 0.019033586 0)
(0.0002797335 0.019033586 -3.3324982e-22)
(0.00045556599 0.019033586 7.7714401e-24)
(0.00063368201 0.019033586 -1.2583093e-22)
(0.00081255922 0.019033586 9.9751646e-22)
(0.00099178242 0.019033586 0)
(0.0011711919 0.019033586 -1.8036523e-23)
(0.0013507132 0.019033586 0)
(0.0015303068 0.019033586 -1.9424571e-22)
(0.0017099499 0.019033586 -3.1063174e-22)
(0.00011988579 0.0197626 0)
(0.0002797335 0.0197626 5.3783686e-22)
(0.00045556599 0.0197626 2.1282469e-21)
(0.00063368201 0.0197626 4.4335926e-22)
(0.00081255922 0.0197626 2.9438763e-21)
(0.00099178242 0.0197626 -8.1469282e-22)
(0.0011711919 0.0197626 -1.8036523e-23)
(0.0013507132 0.0197626 0)
(0.0015303068 0.0197626 -2.0692252e-21)
(0.0017099499 0.0197626 -3.1063174e-22)
(0.00011988579 0.020494297 -1.3111231e-22)
(0.0002797335 0.020494297 1.0322251e-21)
(0.00045556599 0.020494297 4.4751323e-22)
(0.00063368201 0.020494297 -8.181467e-23)
(0.00081255922 0.020494297 1.0804125e-21)
(0.00099178242 0.020494297 7.2176702e-22)
(0.0011711919 0.020494297 1.2034153e-21)
(0.0013507132 0.020494297 4.4169724e-21)
(0.0015303068 0.020494297 1.6738572e-21)
(0.0017099499 0.020494297 -6.9964736e-21)
(0.00011988579 0.021228688 0)
(0.0002797335 0.021228688 0)
(0.00045556599 0.021228688 -7.8326046e-22)
(0.00063368201 0.021228688 -7.3486998e-22)
(0.00081255922 0.021228688 1.0885027e-22)
(0.00099178242 0.021228688 0)
(0.0011711919 0.021228688 -1.8036523e-23)
(0.0013507132 0.021228688 2.1094184e-21)
(0.0015303068 0.021228688 -1.9424571e-22)
(0.0017099499 0.021228688 -3.1063174e-22)
(0.00011988579 0.021965781 1.3020404e-22)
(0.0002797335 0.021965781 6.7667334e-22)
(0.00045556599 0.021965781 7.7714401e-24)
(0.00063368201 0.021965781 -1.2583093e-22)
(0.00081255922 0.021965781 1.0885027e-22)
(0.00099178242 0.021965781 0)
(0.0011711919 0.021965781 -1.8036523e-23)
(0.0013507132 0.021965781 0)
(0.0015303068 0.021965781 -1.9424571e-22)
(0.0017099499 0.021965781 -3.1063174e-22)
(0.00011988579 0.022705588 0)
(0.0002797335 0.022705588 3.2718343e-22)
(0.00045556599 0.022705588 4.431615e-22)
(0.00063368201 0.022705588 9.9594084e-22)
(0.00081255922 0.022705588 3.7776121e-21)
(0.00099178242 0.022705588 -1.6985164e-21)
(0.0011711919 0.022705588 -1.8036523e-23)
(0.0013507132 0.022705588 0)
(0.0015303068 0.022705588 -4.0727662e-21)
(0.0017099499 0.022705588 -1.9637691e-21)
(0.00011988579 0.023448119 2.4448761e-22)
(0.0002797335 0.023448119 7.1166012e-22)
(0.00045556599 0.023448119 -8.1735884e-22)
(0.00063368201 0.023448119 1.7267206e-21)
(0.00081255922 0.023448119 2.8061207e-21)
(0.00099178242 0.023448119 0)
(0.0011711919 0.023448119 -1.8036523e-23)
(0.0013507132 0.023448119 -3.2207443e-21)
(0.0015303068 0.023448119 -1.0973386e-23)
(0.0017099499 0.023448119 -3.1063174e-22)
(0.00011988579 0.024193382 2.5064954e-22)
(0.0002797335 0.024193382 1.0141592e-21)
(0.00045556599 0.024193382 7.7714401e-24)
(0.00063368201 0.024193382 -8.181467e-23)
(0.00081255922 0.024193382 1.0885027e-22)
(0.00099178242 0.024193382 0)
(0.0011711919 0.024193382 -2.5982028e-21)
(0.0013507132 0.024193382 0)
(0.0015303068 0.024193382 -2.0283422e-21)
(0.0017099499 0.024193382 -4.9442929e-22)
(0.00011988579 0.024941389 7.0586079e-24)
(0.0002797335 0.024941389 0)
(0.00045556599 0.024941389 7.7714401e-24)
(0.00063368201 0.024941389 -1.323338e-21)
(0.00081255922 0.024941389 9.7177491e-22)
(0.00099178242 0.024941389 0)
(0.0011711919 0.024941389 1.3585147e-21)
(0.0013507132 0.024941389 2.253625e-21)
(0.0015303068 0.024941389 -1.9424571e-22)
(0.0017099499 0.024941389 6.5970238e-21)
(0.00011988579 0.02569215 0)
(0.0002797335 0.02569215 0)
(0.00045556599 0.02569215 8.2432522e-22)
(0.00063368201 0.02569215 -1.2583093e-22)
(0.00081255922 0.02569215 1.9177725e-21)
(0.00099178242 0.02569215 2.1103196e-21)
(0.0011711919 0.02569215 1.1724002e-21)
(0.0013507132 0.02569215 0)
(0.0015303068 0.02569215 -3.7751804e-22)
(0.0017099499 0.02569215 -3.1063174e-22)
(0.00011988579 0.026445674 2.4797922e-22)
(0.0002797335 0.026445674 3.6102292e-22)
(0.00045556599 0.026445674 7.7714401e-24)
(0.00063368201 0.026445674 1.6142286e-21)
(0.00081255922 0.026445674 -7.4775634e-22)
(0.00099178242 0.026445674 0)
(0.0011711919 0.026445674 -1.0890276e-22)
(0.0013507132 0.026445674 0)
(0.0015303068 0.026445674 -2.1915085e-21)
(0.0017099499 0.026445674 3.3030516e-21)
(0.00011988579 0.027201972 0)
(0.0002797335 0.027201972 1.0198413e-21)
(0.00045556599 0.027201972 7.7714401e-24)
(0.00063368201 0.027201972 -1.2583093e-22)
(0.00081255922 0.027201972 1.0885027e-22)
(0.00099178242 0.027201972 1.486848e-21)
(0.0011711919 0.027201972 -1.8036523e-23)
(0.0013507132 0.027201972 4.2792377e-21)
(0.0015303068 0.027201972 -2.0015833e-21)
(0.0017099499 0.027201972 6.3415319e-21)
(0.00011988579 0.027961054 1.2663695e-22)
(0.0002797335 0.027961054 3.5867101e-22)
(0.00045556599 0.027961054 -4.1764918e-22)
(0.00063368201 0.027961054 -7.1649103e-22)
(0.00081255922 0.027961054 -8.3088715e-22)
(0.00099178242 0.027961054 0)
(0.0011711919 0.027961054 -1.8036523e-23)
(0.0013507132 0.027961054 1.2030077e-21)
(0.0015303068 0.027961054 -2.1782271e-21)
(0.0017099499 0.027961054 -3.1063174e-22)
(0.00011988579 0.02872293 0)
(0.0002797335 0.02872293 0)
(0.00045556599 0.02872293 7.7714401e-24)
(0.00063368201 0.02872293 -1.2583093e-22)
(0.00081255922 0.02872293 1.0885027e-22)
(0.00099178242 0.02872293 2.1697996e-21)
(0.0011711919 0.02872293 -1.8036523e-23)
(0.0013507132 0.02872293 0)
(0.0015303068 0.02872293 -3.9657279e-21)
(0.0017099499 0.02872293 -3.1063174e-22)
(0.00011988579 0.02948761 1.2576144e-22)
(0.0002797335 0.02948761 0)
(0.00045556599 0.02948761 -3.4998495e-23)
(0.00063368201 0.02948761 -6.6847244e-22)
(0.00081255922 0.02948761 -3.5357935e-21)
(0.00099178242 0.02948761 1.3812693e-21)
(0.0011711919 0.02948761 2.3194961e-21)
(0.0013507132 0.02948761 1.1955367e-21)
(0.0015303068 0.02948761 -5.6079036e-22)
(0.0017099499 0.02948761 -3.1063174e-22)
(0.00011988579 0.030255105 3.6186104e-22)
(0.0002797335 0.030255105 -6.5065761e-22)
(0.00045556599 0.030255105 -3.7068449e-22)
(0.00063368201 0.030255105 -1.2583093e-22)
(0.00081255922 0.030255105 1.0885027e-22)
(0.00099178242 0.030255105 -1.4664723e-21)
(0.0011711919 0.030255105 2.3109231e-21)
(0.0013507132 0.030255105 -1.0092158e-21)
(0.0015303068 0.030255105 3.5509648e-21)
(0.0017099499 0.030255105 -3.6814266e-21)
(0.00011988579 0.031025426 2.4272607e-22)
(0.0002797335 0.031025426 -6.2844656e-22)
(0.00045556599 0.031025426 4.2760931e-22)
(0.00063368201 0.031025426 -1.2583093e-22)
(0.00081255922 0.031025426 1.8741103e-21)
(0.00099178242 0.031025426 0)
(0.0011711919 0.031025426 -1.8036523e-23)
(0.0013507132 0.031025426 0)
(0.0015303068 0.031025426 3.354629e-21)
(0.0017099499 0.031025426 4.6361292e-21)
(0.00011988579 0.031798582 0)
(0.0002797335 0.031798582 -3.1307084e-22)
(0.00045556599 0.031798582 4.2622639e-22)
(0.00063368201 0.031798582 -1.2583093e-22)
(0.00081255922 0.031798582 1.867964e-21)
(0.00099178242 0.031798582 4.9619835e-21)
(0.0011711919 0.031798582 -1.8036523e-23)
(0.0013507132 0.031798582 -4.1899127e-21)
(0.0015303068 0.031798582 1.5736838e-21)
(0.0017099499 0.031798582 -3.1063174e-22)
(0.00011988579 0.032574584 0)
(0.0002797335 0.032574584 6.6364074e-22)
(0.00045556599 0.032574584 1.1734629e-21)
(0.00063368201 0.032574584 -1.2583093e-22)
(0.00081255922 0.032574584 1.0300466e-21)
(0.00099178242 0.032574584 1.361117e-21)
(0.0011711919 0.032574584 1.2245441e-21)
(0.0013507132 0.032574584 -1.9963049e-21)
(0.0015303068 0.032574584 -3.7751804e-22)
(0.0017099499 0.032574584 -6.9823477e-21)
(0.00011988579 0.033353443 -2.401426e-22)
(0.0002797335 0.033353443 0)
(0.00045556599 0.033353443 -3.2239301e-22)
(0.00063368201 0.033353443 1.4724593e-21)
(0.00081255922 0.033353443 -7.1989281e-22)
(0.00099178242 0.033353443 0)
(0.0011711919 0.033353443 -1.8036523e-23)
(0.0013507132 0.033353443 0)
(0.0015303068 0.033353443 -1.9424571e-22)
(0.0017099499 0.033353443 6.3379636e-21)
(0.00011988579 0.034135168 0)
(0.0002797335 0.034135168 -3.0963886e-22)
(0.00045556599 0.034135168 7.7714401e-24)
(0.00063368201 0.034135168 -1.2583093e-22)
(0.00081255922 0.034135168 1.0885027e-22)
(0.00099178242 0.034135168 1.3511514e-21)
(0.0011711919 0.034135168 -1.3430509e-21)
(0.0013507132 0.034135168 -2.0729916e-21)
(0.0015303068 0.034135168 -1.9424571e-22)
(0.0017099499 0.034135168 -1.6913253e-21)
(0.00011988579 0.034919771 0)
(0.0002797335 0.034919771 0)
(0.00045556599 0.034919771 7.7714401e-24)
(0.00063368201 0.034919771 -1.2583093e-22)
(0.00081255922 0.034919771 1.8436035e-21)
(0.00099178242 0.034919771 0)
(0.0011711919 0.034919771 -1.8036523e-23)
(0.0013507132 0.034919771 0)
(0.0015303068 0.034919771 1.5478903e-21)
(0.0017099499 0.034919771 -3.1063174e-22)
(0.00011988579 0.035707263 -1.1526442e-22)
(0.0002797335 0.035707263 3.2726952e-22)
(0.00045556599 0.035707263 -7.2992086e-22)
(0.00063368201 0.035707263 -1.1796771e-21)
(0.00081255922 0.035707263 1.8375691e-21)
(0.00099178242 0.035707263 0)
(0.0011711919 0.035707263 -1.3346802e-21)
(0.0013507132 0.035707263 -1.1661956e-21)
(0.0015303068 0.035707263 -1.9424571e-22)
(0.0017099499 0.035707263 -3.1063174e-22)
(0.00011988579 0.036497653 0)
(0.0002797335 0.036497653 1.2647734e-21)
(0.00045556599 0.036497653 1.1957915e-21)
(0.00063368201 0.036497653 -1.2583093e-22)
(0.00081255922 0.036497653 2.7376114e-21)
(0.00099178242 0.036497653 -1.3363396e-21)
(0.0011711919 0.036497653 -4.6318983e-21)
(0.0013507132 0.036497653 0)
(0.0015303068 0.036497653 -1.9236264e-21)
(0.0017099499 0.036497653 -3.1063174e-22)
(0.00011988579 0.037290953 0)
(0.0002797335 0.037290953 6.8983355e-22)
(0.00045556599 0.037290953 -8.1005962e-22)
(0.00063368201 0.037290953 -1.2583093e-22)
(0.00081255922 0.037290953 1.0885027e-22)
(0.00099178242 0.037290953 -7.5598821e-22)
(0.0011711919 0.037290953 2.2351671e-21)
(0.0013507132 0.037290953 3.3856795e-21)
(0.0015303068 0.037290953 3.2518305e-21)
(0.0017099499 0.037290953 1.2310339e-21)
(0.00011988579 0.038087172 -2.3506032e-22)
(0.0002797335 0.038087172 0)
(0.00045556599 0.038087172 4.1534411e-22)
(0.00063368201 0.038087172 -1.2583093e-22)
(0.00081255922 0.038087172 9.1952303e-22)
(0.00099178242 0.038087172 0)
(0.0011711919 0.038087172 1.1044334e-21)
(0.0013507132 0.038087172 5.1379454e-21)
(0.0015303068 0.038087172 -3.7751804e-22)
(0.0017099499 0.038087172 -3.1063174e-22)
(0.00011988579 0.038886323 0)
(0.0002797335 0.038886323 3.4268278e-22)
(0.00045556599 0.038886323 -7.1915817e-22)
(0.00063368201 0.038886323 -1.2583093e-22)
(0.00081255922 0.038886323 1.0059524e-21)
(0.00099178242 0.038886323 0)
(0.0011711919 0.038886323 -1.0890276e-22)
(0.0013507132 0.038886323 0)
(0.0015303068 0.038886323 -1.9424571e-22)
(0.0017099499 0.038886323 -3.1063174e-22)
(0.00011988579 0.039688415 1.2022479e-22)
(0.0002797335 0.039688416 3.0177648e-22)
(0.00045556599 0.039688415 4.1267316e-22)
(0.00063368201 0.039688416 -1.2583093e-22)
(0.00081255922 0.039688416 -1.5006243e-21)
(0.00099178242 0.039688415 -3.472645e-21)
(0.0011711919 0.039688416 1.0962151e-21)
(0.0013507132 0.039688415 -1.9313695e-21)
(0.0015303068 0.039688416 3.3973257e-21)
(0.0017099499 0.039688415 -3.3601625e-21)
(0.00011988579 0.04049346 0)
(0.0002797335 0.04049346 6.2123713e-22)
(0.00045556599 0.04049346 7.7714401e-24)
(0.00063368201 0.04049346 -1.2583093e-22)
(0.00081255922 0.04049346 1.0885027e-22)
(0.00099178242 0.04049346 -7.4627558e-22)
(0.0011711919 0.04049346 3.4941911e-21)
(0.0013507132 0.04049346 0)
(0.0015303068 0.04049346 -3.7733171e-21)
(0.0017099499 0.04049346 -3.1063174e-22)
(0.00011988579 0.041301469 0)
(0.0002797335 0.041301469 -1.1982679e-21)
(0.00045556599 0.041301469 4.1002176e-22)
(0.00063368201 0.041301469 3.8771247e-22)
(0.00081255922 0.041301469 1.0885027e-22)
(0.00099178242 0.041301469 -7.4386964e-22)
(0.0011711919 0.041301469 -1.8036523e-23)
(0.0013507132 0.041301469 9.1302948e-23)
(0.0015303068 0.041301469 1.4974267e-21)
(0.0017099499 0.041301469 -3.1063174e-22)
(0.00011988579 0.042112452 0)
(0.0002797335 0.042112452 3.1836603e-22)
(0.00045556599 0.042112452 1.1250273e-21)
(0.00063368201 0.042112452 -1.2583093e-22)
(0.00081255922 0.042112452 1.7900838e-21)
(0.00099178242 0.042112452 -5.6093464e-22)
(0.0011711919 0.042112452 1.0840003e-21)
(0.0013507132 0.042112452 -1.9101972e-21)
(0.0015303068 0.042112452 -1.9424571e-22)
(0.0017099499 0.042112452 -5.0185805e-21)
(0.00011988579 0.042926419 1.1857373e-22)
(0.0002797335 0.042926419 3.1727139e-22)
(0.00045556599 0.042926419 -3.9184689e-22)
(0.00063368201 0.042926419 -1.189414e-21)
(0.00081255922 0.042926419 2.5772422e-21)
(0.00099178242 0.042926419 0)
(0.0011711919 0.042926419 -2.3957591e-21)
(0.0013507132 0.042926419 -1.2255046e-21)
(0.0015303068 0.042926419 -5.5986501e-21)
(0.0017099499 0.042926419 -3.3156709e-21)
(0.00011988579 0.043743384 -3.4037702e-22)
(0.0002797335 0.043743384 6.1246379e-22)
(0.00045556599 0.043743384 4.0608101e-22)
(0.00063368201 0.043743384 8.0196408e-22)
(0.00081255922 0.043743384 4.2380959e-21)
(0.00099178242 0.043743384 1.4734093e-21)
(0.0011711919 0.043743384 -1.2028709e-21)
(0.0013507132 0.043743384 1.8962114e-21)
(0.0015303068 0.043743384 -1.9424571e-22)
(0.0017099499 0.043743384 -1.8076407e-21)
(0.00011988579 0.044563355 -1.1069865e-22)
(0.0002797335 0.044563355 6.5008597e-22)
(0.00045556599 0.044563355 1.1132484e-21)
(0.00063368201 0.044563355 3.3620378e-22)
(0.00081255922 0.044563355 2.5598241e-21)
(0.00099178242 0.044563355 -5.5379593e-22)
(0.0011711919 0.044563355 2.1618754e-21)
(0.0013507132 0.044563355 -2.8338854e-21)
(0.0015303068 0.044563355 -1.9424571e-22)
(0.0017099499 0.044563355 -1.9859479e-21)
(0.00011988579 0.045386345 0)
(0.0002797335 0.045386345 0)
(0.00045556599 0.045386345 7.7714401e-24)
(0.00063368201 0.045386345 -1.2583093e-22)
(0.00081255922 0.045386345 1.7668595e-21)
(0.00099178242 0.045386345 -2.7473488e-21)
(0.0011711919 0.045386345 3.4215714e-21)
(0.0013507132 0.045386345 0)
(0.0015303068 0.045386345 -1.8551234e-21)
(0.0017099499 0.045386345 -3.1063174e-22)
(0.00011988579 0.046212364 0)
(0.0002797335 0.046212364 0)
(0.00045556599 0.046212364 7.7714401e-24)
(0.00063368201 0.046212364 -1.2583093e-22)
(0.00081255922 0.046212364 1.0885027e-22)
(0.00099178242 0.046212364 -1.2786985e-21)
(0.0011711919 0.046212364 -1.8036523e-23)
(0.0013507132 0.046212364 1.826059e-22)
(0.0015303068 0.046212364 -1.9424571e-22)
(0.0017099499 0.046212364 -3.1063174e-22)
(0.00011988579 0.047041424 1.0948513e-22)
(0.0002797335 0.047041424 2.9196036e-22)
(0.00045556599 0.047041424 7.7714401e-24)
(0.00063368201 0.047041424 -1.2583093e-22)
(0.00081255922 0.047041424 1.0885027e-22)
(0.00099178242 0.047041424 1.2740088e-21)
(0.0011711919 0.047041424 -1.8036523e-23)
(0.0013507132 0.047041424 0)
(0.0015303068 0.047041424 -1.9424571e-22)
(0.0017099499 0.047041424 5.7738383e-21)
(0.00011988579 0.047873536 0)
(0.0002797335 0.047873536 6.0167688e-22)
(0.00045556599 0.047873536 7.7714401e-24)
(0.00063368201 0.047873536 -1.2583093e-22)
(0.00081255922 0.047873536 -6.6685527e-22)
(0.00099178242 0.047873536 -5.4439923e-22)
(0.0011711919 0.047873536 -3.3310642e-21)
(0.0013507132 0.047873536 -1.8616933e-21)
(0.0015303068 0.047873536 -2.0201886e-21)
(0.0017099499 0.047873536 1.1591261e-21)
(0.00011988579 0.048708711 0)
(0.0002797335 0.048708711 3.0972045e-22)
(0.00045556599 0.048708711 3.5555871e-22)
(0.00063368201 0.048708711 -1.2583093e-22)
(0.00081255922 0.048708711 1.0885027e-22)
(0.00099178242 0.048708711 -3.3422404e-21)
(0.0011711919 0.048708711 -1.8036523e-23)
(0.0013507132 0.048708711 -3.7097309e-21)
(0.0015303068 0.048708711 1.4424003e-21)
(0.0017099499 0.048708711 -3.1063174e-22)
(0.00011988579 0.04954696 -1.1534353e-22)
(0.0002797335 0.04954696 0)
(0.00045556599 0.04954696 7.7714401e-24)
(0.00063368201 0.04954696 -1.6989138e-21)
(0.00081255922 0.04954696 1.7383051e-21)
(0.00099178242 0.04954696 -1.3503117e-21)
(0.0011711919 0.04954696 9.5728724e-22)
(0.0013507132 0.04954696 1.0153343e-21)
(0.0015303068 0.04954696 -1.9424571e-22)
(0.0017099499 0.04954696 -3.1063174e-22)
(0.00011988579 0.050388295 0)
(0.0002797335 0.050388295 2.8770075e-22)
(0.00045556599 0.050388295 8.2656305e-22)
(0.00063368201 0.050388295 -6.1903222e-22)
(0.00081255922 0.050388295 1.0885027e-22)
(0.00099178242 0.050388295 0)
(0.0011711919 0.050388295 1.1351094e-21)
(0.0013507132 0.050388295 0)
(0.0015303068 0.050388295 -1.9424571e-22)
(0.0017099499 0.050388295 -3.1063174e-22)
(0.00011988579 0.051232726 2.220428e-22)
(0.0002797335 0.051232726 -3.0654331e-22)
(0.00045556599 0.051232726 7.7714401e-24)
(0.00063368201 0.051232726 -1.2583093e-22)
(0.00081255922 0.051232726 1.0885027e-22)
(0.00099178242 0.051232726 0)
(0.0011711919 0.051232726 -1.8036523e-23)
(0.0013507132 0.051232726 0)
(0.0015303068 0.051232726 1.4244588e-21)
(0.0017099499 0.051232726 -3.1063174e-22)
(0.00011988579 0.052080266 0)
(0.0002797335 0.052080266 6.1098406e-22)
(0.00045556599 0.052080266 -3.3494173e-22)
(0.00063368201 0.052080266 -1.1050114e-21)
(0.00081255922 0.052080266 1.9825285e-22)
(0.00099178242 0.052080266 -1.3364987e-21)
(0.0011711919 0.052080266 -1.8036523e-23)
(0.0013507132 0.052080266 3.838213e-21)
(0.0015303068 0.052080266 -3.6030538e-21)
(0.0017099499 0.052080266 -1.7536346e-21)
(0.00011988579 0.052930926 -2.1341016e-22)
(0.0002797335 0.052930926 6.088892e-22)
(0.00045556599 0.052930926 1.4163664e-21)
(0.00063368201 0.052930926 -1.2583093e-22)
(0.00081255922 0.052930926 1.7158362e-21)
(0.00099178242 0.052930926 -9.0268943e-23)
(0.0011711919 0.052930926 -1.8036523e-23)
(0.0013507132 0.052930926 1.001853e-21)
(0.0015303068 0.052930926 -1.8010987e-21)
(0.0017099499 0.052930926 -3.1063174e-22)
(0.00011988579 0.053784718 0)
(0.0002797335 0.053784718 3.0340101e-22)
(0.00045556599 0.053784718 7.7714401e-24)
(0.00063368201 0.053784718 -1.2583093e-22)
(0.00081255922 0.053784718 2.4662792e-21)
(0.00099178242 0.053784718 -1.2371053e-21)
(0.0011711919 0.053784718 -1.8036523e-23)
(0.0013507132 0.053784718 9.1302948e-23)
(0.0015303068 0.053784718 -1.9424571e-22)
(0.0017099499 0.053784718 -3.1063174e-22)
(0.00011988579 0.054641652 0)
(0.0002797335 0.054641652 0)
(0.00045556599 0.054641652 7.7714401e-24)
(0.00063368201 0.054641652 -1.2583093e-22)
(0.00081255922 0.054641652 9.5148892e-22)
(0.00099178242 0.054641652 2.6456741e-21)
(0.0011711919 0.054641652 -1.2427112e-21)
(0.0013507132 0.054641652 0)