/*--------------------------------*- C++ -*----------------------------------*\
  =========                 |
  \\      /  F ield         | OpenFOAM: The Open Source CFD Toolbox
   \\    /   O peration     | Website:  https://openfoam.org
    \\  /    A nd           | Version:  7
     \\/     M anipulation  |
\*---------------------------------------------------------------------------*/
FoamFile
{
    version     2.0;
    format      ascii;
    class       volScalarField;
    location    "80000";
    object      k;
}
// * * * * * * * * * * * * * * * * * * * * * * * * * * * * * * * * * * * * * //

dimensions      [0 2 -2 0 0 0 0];

internalField   nonuniform List<scalar> 
87000
(
92.16693
90.332403
88.643992
85.994335
81.94341
77.236755
69.008998
60.090199
56.696284
38.075368
110.88952
112.58961
115.5145
118.07678
118.81927
117.25147
111.24594
102.64773
105.61984
90.429305
123.86846
126.33528
130.93305
136.18895
140.52759
142.78976
141.58678
138.25113
143.6694
131.96334
133.35534
135.98416
141.18417
147.80637
154.5325
160.20746
164.01989
167.17399
174.80573
167.14611
140.64171
143.24778
148.62255
155.95263
164.28139
172.71893
180.88794
189.67042
199.63397
195.64805
146.31447
148.85173
154.23763
161.94401
171.36493
181.95229
193.60965
206.66482
219.04056
218.33564
150.72854
153.19167
158.52759
166.43651
176.60715
188.83728
203.17526
219.38875
233.9474
236.14972
154.11585
156.5122
161.78228
169.79811
180.51521
193.99797
210.41873
228.81121
245.1727
249.90713
156.64122
158.98243
164.19268
172.2693
183.40829
197.8408
215.7219
235.61052
253.40039
260.25817
158.43304
160.73116
165.89074
174.01778
185.47347
200.59843
219.40889
240.40719
259.26473
267.84337
159.59397
161.86144
166.97699
175.16277
186.86432
202.50623
222.0023
243.73441
263.32823
273.2933
160.21737
162.46776
167.55722
175.8095
187.71879
203.77699
223.77677
245.95569
266.01099
277.07422
160.39564
162.64387
167.74072
176.07824
188.21374
204.717
224.96085
247.34397
267.63326
279.52743
160.1964
162.44951
167.59906
176.05594
188.42587
205.19311
225.56119
248.01182
268.3752
280.88296
159.67979
161.94499
167.18013
175.7698
188.32646
205.1745
225.70926
248.1329
268.45089
281.40286
158.91608
161.20951
166.5433
175.27473
188.0053
204.97885
225.58471
247.88619
268.06204
281.31093
157.97234
160.31047
165.74983
174.63782
187.54591
204.63888
225.23622
247.33765
267.29402
280.72525
156.89936
159.29305
164.84994
173.91115
187.00087
204.19161
224.71954
246.55418
266.22486
279.75659
155.73733
158.19308
163.88458
173.1359
186.41957
203.69606
224.0971
245.6093
264.94685
278.50239
154.53782
157.06588
162.91655
172.40924
186.01767
203.21036
223.40311
244.54021
263.51073
277.01045
153.33569
155.94411
161.97374
171.71139
185.47497
202.57354
222.55381
243.295
261.8781
275.27455
152.12557
154.82761
161.02341
170.92955
184.66511
201.81624
221.58284
241.91871
260.09722
273.36555
150.9337
153.73467
160.08223
170.13458
183.9249
201.05958
220.57941
240.49456
258.25437
271.36738
149.80256
152.69059
159.18105
169.37253
183.22134
200.28655
219.52935
239.01362
256.35869
269.29632
148.74423
151.71103
158.33624
168.65534
182.54572
199.50093
218.43784
237.47928
254.41477
267.15927
147.76999
150.8096
157.55964
167.98785
181.89177
198.70116
217.30803
235.89863
252.42275
264.96212
146.89011
149.99574
156.85373
167.36935
181.25735
197.88934
216.14744
234.29107
250.39854
262.72187
146.11108
149.27364
156.22629
166.80342
180.64511
197.0706
214.96614
232.65854
248.34911
260.44932
145.43679
148.65028
155.68051
166.28842
180.0519
196.24413
213.76058
230.99253
246.28026
258.15137
144.86925
148.12507
155.20753
165.81746
179.47214
195.40499
212.52441
229.3005
244.19419
255.83544
144.4132
147.69506
154.80536
165.38883
178.90245
194.55136
211.2637
227.59793
242.09694
253.50991
144.06222
147.35547
154.47032
164.99801
178.34265
193.6908
209.99691
225.88637
239.99148
251.17478
143.80743
147.10143
154.19927
164.64231
177.79222
192.82126
208.71191
224.15048
237.87622
248.82992
143.64609
146.92868
153.984
164.31364
177.24192
191.92876
207.39536
222.39712
235.75827
246.48354
143.56932
146.82716
153.81697
164.00708
176.69094
191.02088
206.06676
220.64435
233.64163
244.13831
143.56466
146.7879
153.69292
163.72016
176.13876
190.10681
204.73183
218.88375
231.51775
241.78937
143.61802
146.80136
153.60345
163.44673
175.57617
189.17314
203.37192
217.09969
229.38355
239.43714
143.72106
146.85755
153.54036
163.17684
175.00232
188.21372
201.98688
215.3046
227.25281
237.08976
143.87006
146.95053
153.49713
162.90387
174.4192
187.24392
200.59805
213.51453
225.12957
234.74884
144.05928
147.071
153.46213
162.63133
173.82207
186.25935
199.19651
211.71435
223.00025
232.40598
144.2678
147.2017
153.4297
162.35292
173.20744
185.24704
197.76823
209.89523
220.86382
230.06017
144.48588
147.34239
153.40126
162.05843
172.57338
184.21511
196.32249
208.06559
218.72354
227.71448
144.72481
147.49705
153.37284
161.75556
171.91651
183.15929
194.8574
206.22411
216.57673
225.36513
144.96257
147.64538
153.33174
161.42101
171.18324
181.99564
193.29706
204.30819
214.37322
222.97216
145.13304
147.70986
153.1496
160.83372
169.95977
180.62307
191.63105
202.33859
212.14649
220.57236
145.23062
147.68733
152.86518
160.18896
169.02828
179.4913
190.12806
200.50245
210.03803
218.27694
145.32837
147.69249
152.6933
159.81938
168.61609
178.5261
188.71894
198.72353
207.96966
216.01143
145.44902
147.73276
152.56878
159.46743
167.985
177.45133
187.23043
196.87818
205.84297
213.69312
145.57192
147.77006
152.4278
159.07669
167.2666
176.3369
185.72021
195.01622
203.70059
211.35691
145.68259
147.78965
152.26185
158.63823
166.48472
175.13588
184.1064
193.06336
201.48333
208.95818
145.72524
147.73047
151.9859
158.03884
165.43502
173.4338
182.28207
191.01964
199.22866
206.54707
145.67672
147.56689
151.5908
157.31349
164.31321
172.05079
180.73178
189.15881
197.11594
204.25182
145.60075
147.40051
151.2404
156.73038
163.516
171.20878
179.36681
187.39747
195.05681
201.98424
145.52162
147.24486
150.92445
156.20331
162.729
170.10964
177.8115
185.45746
192.83615
199.5713
145.38704
147.02825
150.53265
155.55572
161.72984
168.66604
175.75163
183.29826
190.50822
197.09716
145.17876
146.72993
150.0419
154.78997
160.61617
167.17333
174.02402
181.38475
188.29636
194.69089
144.90881
146.37485
149.50822
154.01577
159.56583
165.85816
172.55061
179.18741
185.97631
192.23822
144.58192
145.96839
148.9348
153.20885
158.48137
164.46648
170.82398
177.21874
183.87002
189.89419
144.22725
145.54228
148.35943
152.42094
157.45207
163.19039
169.34497
175.66193
181.7756
187.52071
143.83624
145.08439
147.76177
151.62117
156.41513
161.87689
167.73165
173.67652
179.30373
184.93737
143.38767
144.56758
147.10047
150.75069
155.28838
160.44529
165.96769
171.55968
176.94478
182.1726
142.88163
143.9937
146.38142
149.82332
154.10566
158.97882
164.21213
169.55135
174.78429
179.69604
142.31996
143.36821
145.61385
148.85737
152.90278
157.52117
162.49946
167.60959
172.64024
177.42021
141.69701
142.68426
144.79517
147.85259
151.68119
156.0661
160.7971
165.66877
170.47109
175.02581
140.99475
141.9213
143.90527
146.78325
150.39772
154.54449
159.0165
163.63272
168.19957
172.53849
140.21721
141.08247
142.93802
145.63108
149.01159
152.89197
157.07847
161.4023
165.68022
169.73914
139.38499
140.1918
141.92319
144.43708
147.58956
151.2142
155.13697
159.18604
163.20191
167.03575
138.48848
139.24171
140.85683
143.20495
146.15182
149.55427
153.24955
157.07041
160.88623
164.5611
137.54028
138.24692
139.74193
141.93204
144.68933
147.88935
151.376
155.0027
158.64166
162.17391
136.54022
137.20213
138.58697
140.63392
143.22222
146.237
149.53513
152.98603
156.46093
159.86041
135.47635
136.09728
137.39561
139.3171
141.75312
144.59401
147.71621
150.99938
154.32382
157.5903
134.37665
134.96113
136.18356
137.988
140.27998
142.95649
145.91534
149.03908
152.21865
155.35131
133.25357
133.80109
134.95057
136.64442
138.80034
141.32555
144.12987
147.09925
150.13433
153.139
132.10519
132.61736
133.69678
135.2896
137.32033
139.70566
142.35783
145.17635
148.06809
150.94354
130.93502
131.41406
132.42747
133.92518
135.83721
138.08738
140.58949
143.26115
146.01009
148.75312
129.74639
130.1943
131.14524
132.55223
134.35001
136.46691
138.82495
141.35218
143.95859
146.56781
128.5524
128.97209
129.86724
131.17934
132.86199
134.84709
137.06577
139.44556
141.90996
144.3844
127.34636
127.73891
128.57838
129.79579
131.36318
133.21948
135.30044
137.53444
139.85853
142.1975
126.10371
126.46826
127.2483
128.38041
129.83985
131.57312
133.51952
135.61415
137.79663
140.00164
124.81511
125.15234
125.87493
126.92745
128.28691
129.90352
131.72017
133.67992
135.7231
137.79585
123.47621
123.78693
124.45856
125.43737
126.7027
128.20765
129.89962
131.72801
133.63694
135.57641
122.09848
122.38529
123.00964
123.92005
125.0946
126.48855
128.05873
129.75765
131.53551
133.34296
120.69201
120.9575
121.53487
122.38043
123.45937
124.74248
126.193
127.76483
129.41362
131.09279
119.23817
119.4823
120.01238
120.79011
121.7754
122.95429
124.28993
125.73946
127.26259
128.81706
117.72001
117.94281
118.42587
119.13524
120.03745
121.12037
122.34619
123.67862
125.0798
126.51224
116.13772
116.34036
116.77928
117.42495
118.25004
119.24165
120.36134
121.58045
122.86348
124.17701
114.49564
114.67971
115.07802
115.66522
116.41985
117.31718
118.33324
119.44206
120.61077
121.80803
112.78419
112.95037
113.3093
113.84261
114.5278
115.33446
116.25376
117.25636
118.3146
119.39938
110.99398
111.14287
111.46408
111.94446
112.55976
113.28615
114.11553
115.01749
115.97052
116.94799
109.13047
109.26344
109.55036
109.97925
110.52908
111.18151
111.92211
112.72836
113.58035
114.45428
107.19272
107.31081
107.5656
107.94625
108.43477
109.01657
109.67042
110.3857
111.14004
111.91422
105.1723
105.27622
105.50037
105.83494
106.26452
106.77651
107.35061
107.98046
108.64316
109.32324
103.06511
103.15567
103.35088
103.64199
104.01678
104.46343
104.96633
105.51486
106.09228
106.68251
100.87113
100.9493
101.11771
101.3687
101.69368
102.08042
102.51683
102.9873
103.48354
103.98849
98.589136
98.655852
98.799465
99.013515
99.291277
99.621058
99.992782
100.39158
100.81245
101.23939
96.219924
96.276107
96.396895
96.577035
96.810317
97.086992
97.398458
97.733484
98.08332
98.436638
93.76308
93.8096
93.909438
94.058407
94.250841
94.478766
94.734884
95.010132
95.292774
95.577261
91.216835
91.254468
91.335027
91.455265
91.610041
91.792868
91.997496
92.216095
92.438461
92.660524
88.581203
88.610754
88.673782
88.767875
88.888429
89.030409
89.188407
89.355734
89.524873
89.688995
85.858725
85.880986
85.928209
85.998719
86.088416
86.193711
86.309954
86.431396
86.551926
86.66334
83.057853
83.073705
83.107027
83.156793
83.219533
83.29219
83.370405
83.449466
83.524138
83.587626
80.173752
80.183804
80.204548
80.235484
80.273587
80.31645
80.360687
80.402319
80.436961
80.459674
77.213804
77.21882
77.228647
77.243253
77.260093
77.277161
77.291938
77.30107
77.300877
77.287523
74.184624
74.185282
74.185669
74.186141
74.184548
74.179309
74.168525
74.149359
74.118746
74.073509
71.092172
71.089104
71.081425
71.069803
71.05241
71.028336
70.995852
70.952617
70.896119
70.823735
67.945828
67.939647
67.92524
67.903524
67.872996
67.833292
67.78276
67.719537
67.641591
67.546792
64.756293
64.747582
64.727715
64.697784
64.656786
64.604421
64.539313
64.45998
64.364802
64.25207
61.535508
61.524801
61.500635
61.464292
61.415389
61.353295
61.276953
61.185217
61.076818
60.950416
58.29733
58.285158
58.257954
58.217314
58.16276
58.093604
58.0091
57.908381
57.790481
57.654382
55.058986
55.045973
55.01699
54.973598
54.915143
54.841188
54.7512
54.644544
54.520505
54.378339
51.839619
51.826132
51.796082
51.750868
51.690018
51.613236
51.520147
51.410302
51.283188
51.138285
48.657753
48.644017
48.613474
48.567499
48.505742
48.428014
48.334068
48.2236
48.096265
47.951741
45.532607
45.518946
45.488623
45.442973
45.381749
45.304848
45.21213
45.103411
44.978488
44.837199
42.484612
42.471322
42.441868
42.397515
42.338103
42.2636
42.173949
42.069064
41.948862
41.813247
39.534957
39.522302
39.494286
39.452093
39.395633
39.324931
39.239997
39.140825
39.027445
38.899672
36.705112
36.693323
36.667249
36.627978
36.575476
36.509815
36.431056
36.339267
36.234547
36.116636
34.015991
34.005263
33.981559
33.945855
33.898166
33.838594
33.767245
33.684242
33.589715
33.483528
31.48779
31.478289
31.457312
31.425719
31.38356
31.330962
31.268065
31.195037
31.112009
31.019071
29.139228
29.131084
29.113117
29.086062
29.049998
29.005068
28.951434
28.889289
28.818815
28.740247
26.986557
26.979861
26.9651
26.942886
26.91331
26.876526
26.83271
26.78207
26.72482
26.661314
25.042594
25.037394
25.025942
25.008723
24.985837
24.957437
24.923703
24.884847
24.841088
24.792861
23.315656
23.311956
23.303816
23.291597
23.275401
23.255375
23.231692
23.204558
23.174206
23.140967
21.808436
21.806192
21.801263
21.793897
21.784186
21.772266
21.758298
21.742474
21.725015
21.706166
20.517312
20.516435
20.514522
20.511712
20.508086
20.503763
20.498888
20.493633
20.488197
20.482804
19.432468
19.432836
19.433664
19.434998
19.436904
19.439482
19.442858
19.447182
19.452628
19.459392
18.53878
18.540247
18.543493
18.548485
18.55527
18.563932
18.574576
18.587332
18.602347
18.619791
17.817357
17.81977
17.825096
17.833234
17.844218
17.858113
17.875008
17.895011
17.918249
17.944863
17.24721
17.250425
17.257511
17.268314
17.282851
17.301174
17.323356
17.349489
17.379678
17.414046
16.806728
16.810618
16.819186
16.832237
16.849773
16.87183
16.898467
16.929755
16.96578
17.006645
16.475648
16.480089
16.48987
16.504763
16.524757
16.549883
16.58019
16.61574
16.65661
16.702889
16.235561
16.240449
16.251208
16.267586
16.289566
16.317174
16.350456
16.389472
16.434297
16.485008
16.069709
16.074968
16.086537
16.104149
16.127777
16.15744
16.19318
16.23505
16.283116
16.337455
15.963596
15.969163
15.981409
16.00005
16.025052
16.056432
16.094225
16.138482
16.189261
16.246633
15.904959
15.910786
15.9236
15.943107
15.969265
16.002089
16.041611
16.087876
16.14094
16.200867
15.883552
15.8896
15.902895
15.923136
15.950276
15.984325
16.025312
16.07328
16.12828
16.190374
15.890887
15.897122
15.910829
15.931696
15.959674
15.994768
16.037007
16.086428
16.143082
16.207023
15.919999
15.926396
15.940454
15.961859
15.990555
16.026545
16.069856
16.120523
16.178591
16.244114
15.965187
15.971723
15.986084
16.007951
16.037263
16.074023
16.118253
16.169988
16.229268
16.296144
16.021808
16.028464
16.043086
16.065353
16.095197
16.13262
16.177641
16.230291
16.290609
16.35864
16.086088
16.092847
16.107693
16.130302
16.160603
16.198594
16.244294
16.297728
16.358933
16.427949
16.155015
16.161861
16.176897
16.199795
16.230481
16.268953
16.315226
16.369324
16.431279
16.501127
16.226147
16.233066
16.248261
16.271403
16.302413
16.341286
16.388037
16.442686
16.505262
16.5758
16.297547
16.304527
16.319856
16.3432
16.374479
16.413686
16.460832
16.515934
16.579018
16.650114
16.367667
16.374696
16.390132
16.41364
16.445136
16.484613
16.532077
16.587544
16.651036
16.722579
16.435349
16.442416
16.457935
16.481567
16.51323
16.552911
16.600617
16.656362
16.720162
16.79204
16.499684
16.506782
16.522366
16.546097
16.577888
16.617726
16.665613
16.72156
16.785583
16.857697
16.559957
16.567074
16.582701
16.606497
16.638375
16.678317
16.726324
16.782404
16.846569
16.918833
16.615809
16.622939
16.63859
16.662424
16.694349
16.734349
16.78242
16.838569
16.902802
16.975132
16.666805
16.673932
16.689581
16.713414
16.745341
16.785344
16.83342
16.889571
16.953802
17.02612
16.713406
16.720463
16.735983
16.759689
16.791516
16.831434
16.879431
16.935503
16.999652
17.071877
16.75532
16.7623
16.777647
16.80109
16.832624
16.8723
16.92009
16.975971
17.039932
17.111964
16.792437
16.799392
16.814655
16.837895
16.869099
16.90837
16.955807
17.011373
17.075032
17.146764
16.823926
16.830869
16.846108
16.869309
16.900376
16.939329
16.986336
17.041499
17.104774
17.176123
16.849958
16.856886
16.872091
16.89524
16.926231
16.965034
17.011692
17.066419
17.129261
17.200171
16.870642
16.877548
16.892706
16.915783
16.946677
16.985351
17.03179
17.086086
17.148471
17.218905
16.886039
16.892922
16.908028
16.931024
16.96181
17.000349
17.046616
17.100603
17.162497
17.232413
16.8963
16.903157
16.918208
16.941118
16.971785
17.010174
17.056257
17.110006
17.171443
17.240851
16.901608
16.908438
16.923428
16.946244
16.976784
17.015011
17.060895
17.114405
17.175518
17.244403
16.902203
16.909003
16.923927
16.946641
16.977044
17.015098
17.060774
17.11404
17.174859
17.243231
16.898284
16.90505
16.9199
16.942499
16.972745
17.010599
17.056031
17.109011
17.169496
17.237453
16.890051
16.896784
16.91156
16.934046
16.964138
17.001795
17.046985
17.099678
17.159833
17.227407
16.877679
16.884376
16.899075
16.92144
16.95137
16.988821
17.033759
17.086151
17.145956
17.213118
16.861418
16.868076
16.882689
16.904923
16.934676
16.971905
17.016576
17.068651
17.128091
17.194838
16.841481
16.848101
16.862631
16.884737
16.914315
16.951321
16.995717
17.047466
17.106531
17.172856
16.818026
16.824607
16.839049
16.861019
16.890415
16.927189
16.971303
17.022717
17.081383
17.147251
16.791292
16.797829
16.812176
16.834
16.8632
16.899727
16.943544
16.994606
17.052866
17.118271
16.761421
16.767917
16.782174
16.803859
16.832869
16.869155
16.912675
16.963385
17.021233
17.086172
16.728609
16.735062
16.749223
16.770762
16.799573
16.835608
16.878823
16.929171
16.986599
17.051052
16.693069
16.699476
16.713537
16.734922
16.763525
16.799297
16.84219
16.892155
16.949139
17.01308
16.654888
16.661249
16.675211
16.696441
16.724837
16.760347
16.802923
16.852515
16.909065
16.972508
16.614288
16.620603
16.634461
16.655534
16.683718
16.718959
16.761209
16.810418
16.866527
16.929469
16.571383
16.57765
16.591405
16.612318
16.640285
16.675254
16.717175
16.765993
16.821649
16.884071
16.526333
16.532552
16.5462
16.566949
16.594695
16.629385
16.670967
16.719387
16.774581
16.836479
16.479238
16.485408
16.498949
16.519534
16.54706
16.581473
16.622721
16.670748
16.725491
16.786877
16.430253
16.436374
16.449807
16.470228
16.497535
16.531671
16.572586
16.62022
16.674511
16.735384
16.379528
16.385598
16.398921
16.419172
16.44625
16.480098
16.520662
16.567885
16.621702
16.682042
16.327044
16.333062
16.346271
16.366349
16.393195
16.426752
16.46697
16.513787
16.567139
16.626954
16.272906
16.278873
16.291972
16.31188
16.338499
16.371773
16.411651
16.458075
16.510981
16.570293
16.217327
16.223246
16.236237
16.255981
16.28238
16.315378
16.354922
16.400955
16.45341
16.51221
16.16048
16.166346
16.179222
16.198791
16.224954
16.257656
16.296846
16.342464
16.394447
16.452724
16.102304
16.108119
16.120881
16.140275
16.166206
16.198618
16.237459
16.282673
16.334197
16.391959
16.042983
16.048746
16.061397
16.080621
16.10632
16.138438
16.176925
16.221723
16.27277
16.329995
15.982537
15.988246
16.000778
16.019822
16.045282
16.077105
16.115239
16.159629
16.210212
16.266921
15.921054
15.926711
15.93913
15.958003
15.983236
16.014777
16.052572
16.096563
16.146685
16.202868
15.858734
15.864337
15.876637
15.895328
15.920317
15.951551
15.988979
16.032546
16.08219
16.137843
15.795505
15.801054
15.813237
15.831749
15.8565
15.887437
15.924511
15.967669
16.016851
16.071985
15.731596
15.737077
15.749137
15.767471
15.791985
15.822624
15.859337
15.90207
15.950764
16.00535
15.667032
15.672422
15.68434
15.702476
15.726735
15.757063
15.793409
15.835719
15.883933
15.937986
15.601858
15.607182
15.618932
15.636859
15.660861
15.690882
15.726869
15.768765
15.816507
15.870024
15.536165
15.541446
15.553038
15.570756
15.594495
15.624194
15.659798
15.701251
15.748492
15.801452
15.469798
15.47503
15.486509
15.504044
15.527535
15.556923
15.592156
15.633179
15.679931
15.732346
15.402932
15.408121
15.419505
15.436847
15.46009
15.489173
15.524043
15.564642
15.610908
15.662769
15.335735
15.34088
15.352163
15.369295
15.39227
15.421028
15.455513
15.495669
15.541435
15.592741
15.267993
15.27309
15.284268
15.301225
15.323959
15.352413
15.386534
15.426266
15.471549
15.522318
15.199871
15.204922
15.215998
15.232801
15.255314
15.283483
15.317255
15.356576
15.401384
15.451611
15.131549
15.136551
15.147524
15.164168
15.186454
15.214329
15.247743
15.28664
15.330961
15.380637
15.063049
15.068002
15.078867
15.095349
15.117388
15.144952
15.177992
15.216452
15.260271
15.309382
14.994424
14.99933
15.01009
15.02641
15.048195
15.075444
15.108108
15.146129
15.189448
15.237995
14.92549
14.930342
14.940985
14.957129
14.978666
15.005599
15.037879
15.075453
15.118261
15.166235
14.856416
14.861216
14.871747
14.887721
14.909033
14.935676
14.967603
15.00476
15.047088
15.09452
14.78694
14.791691
14.802115
14.817926
14.839022
14.86539
14.896984
14.93375
14.975625
15.022542
14.717197
14.721897
14.73221
14.747852
14.768725
14.794802
14.826035
14.862374
14.903756
14.950114
14.647183
14.651831
14.662028
14.677496
14.698137
14.723916
14.754785
14.790694
14.831583
14.877384
14.576951
14.581546
14.591628
14.606921
14.62733
14.652804
14.683304
14.718781
14.759176
14.804421
14.506569
14.511112
14.52108
14.536201
14.55638
14.581551
14.611688
14.646741
14.686652
14.731354
14.436047
14.440537
14.450391
14.46534
14.48529
14.510167
14.539949
14.574585
14.614017
14.658178
14.365498
14.369931
14.37966
14.394422
14.414125
14.438704
14.468125
14.50234
14.541287
14.584896
14.29487
14.299243
14.308842
14.323408
14.342856
14.367125
14.396178
14.429961
14.468416
14.511471
14.224099
14.228416
14.237891
14.252272
14.271475
14.295441
14.32413
14.357489
14.395459
14.437972
14.153211
14.157474
14.166831
14.181033
14.199999
14.22367
14.252003
14.284947
14.322444
14.364426
14.082262
14.086472
14.095715
14.109743
14.128478
14.151862
14.179848
14.212388
14.249424
14.290891
14.011299
14.015459
14.024591
14.038451
14.056961
14.080066
14.107717
14.139866
14.176456
14.217425
13.940391
13.944502
13.953526
13.967223
13.985517
14.008353
14.035681
14.067455
14.103621
14.144109
13.869676
13.87374
13.882661
13.896201
13.914283
13.936853
13.963855
13.995242
14.030952
14.070917
13.799269
13.803277
13.812075
13.825429
13.843264
13.865526
13.892158
13.92311
13.958316
13.99771
13.728901
13.732846
13.741508
13.754656
13.772221
13.79415
13.820392
13.850895
13.885598
13.924433
13.658341
13.662229
13.670767
13.683727
13.701041
13.722659
13.748531
13.778606
13.812825
13.85112
13.587667
13.591502
13.599921
13.612702
13.629777
13.651099
13.676618
13.706283
13.740037
13.777815
13.516946
13.520729
13.529036
13.541646
13.558494
13.579533
13.604714
13.633989
13.6673
13.704583
13.446251
13.449985
13.458185
13.470633
13.487265
13.508035
13.532896
13.561801
13.594693
13.63151
13.375669
13.379358
13.387457
13.399752
13.416181
13.436699
13.46126
13.489818
13.522319
13.558704
13.305313
13.308959
13.316966
13.329122
13.345366
13.365655
13.389943
13.418176
13.450298
13.486239
13.235408
13.239011
13.246925
13.258937
13.274984
13.29502
13.318997
13.346861
13.378549
13.413988
13.165842
13.169396
13.1772
13.189043
13.204861
13.224606
13.248233
13.275687
13.306912
13.34184
13.096313
13.099815
13.107504
13.119176
13.134767
13.154235
13.177532
13.204608
13.235406
13.269862
13.026843
13.030298
13.037885
13.049402
13.064788
13.084002
13.106998
13.133729
13.16414
13.19816
12.957589
12.961003
12.968499
12.979878
12.995078
13.014057
13.036768
13.063157
13.093164
13.126716
12.888668
12.892037
12.899435
12.910663
12.925659
12.944379
12.966773
12.992783
13.022346
13.055392
12.819911
12.82323
12.830519
12.84158
12.856354
12.874795
12.896857
12.922485
12.951621
12.984196
12.751181
12.754454
12.761641
12.772549
12.787118
12.805305
12.827066
12.852349
12.881096
12.913244
12.682596
12.685827
12.692922
12.703691
12.718076
12.736037
12.75753
12.782508
12.810909
12.842659
12.614344
12.617539
12.624553
12.635197
12.649415
12.667161
12.688389
12.713044
12.74106
12.772358
12.546469
12.549621
12.556544
12.567047
12.581072
12.598572
12.619494
12.643779
12.671363
12.702173
12.478743
12.481849
12.488667
12.499013
12.512826
12.530062
12.55067
12.574597
12.60178
12.632147
12.411082
12.414144
12.420868
12.431069
12.444691
12.46169
12.482019
12.505625
12.532449
12.562424
12.343613
12.346636
12.353276
12.363351
12.376805
12.393598
12.413685
12.437018
12.463533
12.493153
12.276536
12.279528
12.286096
12.296062
12.309369
12.325973
12.345825
12.368866
12.395026
12.424223
12.20992
12.212874
12.219359
12.229196
12.242325
12.258699
12.278263
12.300951
12.326692
12.35541
12.143498
12.146406
12.152791
12.162475
12.175399
12.191516
12.210772
12.23311
12.25846
12.286746
12.077117
12.079983
12.086276
12.095821
12.10856
12.124448
12.143434
12.165462
12.190468
12.21838
12.010922
12.013752
12.019965
12.029389
12.041968
12.05766
12.076416
12.098184
12.122905
12.150505
11.945088
11.947889
11.954038
11.963367
11.975821
11.991354
12.009914
12.031442
12.055864
12.083091
11.879875
11.882644
11.888723
11.897941
11.91024
11.925571
11.943875
11.965084
11.989115
12.015874
11.81499
11.817717
11.823702
11.832773
11.844869
11.85994
11.87793
11.898773
11.922393
11.948707
11.750129
11.752811
11.758699
11.767625
11.779531
11.794365
11.812075
11.832598
11.855861
11.881785
11.685319
11.687964
11.693768
11.702569
11.714308
11.728939
11.74641
11.766661
11.789625
11.815228
11.620842
11.623455
11.62919
11.637887
11.649492
11.66396
11.681242
11.701287
11.724016
11.749336
11.556952
11.559543
11.56523
11.57385
11.585347
11.599669
11.616758
11.636545
11.658944
11.683851
11.493748
11.4963
11.501901
11.510389
11.521702
11.535781
11.552561
11.571959
11.593894
11.618276
11.430872
11.433368
11.438842
11.447135
11.458185
11.471938
11.488332
11.507297
11.528754
11.552616
11.36728
11.369725
11.37509
11.383221
11.394061
11.407558
11.423657
11.442295
11.463399
11.48689
11.303911
11.306324
11.311618
11.319641
11.330337
11.343657
11.359549
11.377951
11.398796
11.422008
11.240955
11.243342
11.248581
11.256522
11.267113
11.280308
11.296058
11.314308
11.334972
11.357953
11.178818
11.18119
11.186396
11.194283
11.204792
11.217873
11.233461
11.251485
11.271854
11.294463
11.117781
11.120122
11.125257
11.133034
11.143388
11.156262
11.171583
11.189268
11.209243
11.23142
11.057189
11.059485
11.06452
11.072146
11.082303
11.094938
11.109991
11.127398
11.147069
11.168896
10.997068
10.999336
11.00431
11.011839
11.021862
11.034318
11.04914
11.066246
11.085544
11.106927
10.937865
10.940089
10.944966
10.952346
10.962164
10.974356
10.988848
11.005554
11.02439
11.045272
10.879052
10.881218
10.885967
10.893157
10.902728
10.914626
10.928789
10.94515
10.963636
10.984141
10.820424
10.822559
10.827244
10.834336
10.843771
10.855491
10.869428
10.885505
10.903634
10.923716
10.762976
10.76507
10.769663
10.776613
10.785857
10.797336
10.810982
10.826706
10.844398
10.863967
10.706688
10.708726
10.713192
10.719949
10.728932
10.740082
10.753329
10.768597
10.7858
10.804846
10.651037
10.653018
10.65736
10.663931
10.672672
10.683519
10.696392
10.711208
10.727887
10.746343
10.596313
10.598227
10.602423
10.60877
10.617209
10.627682
10.640124
10.654464
10.670619
10.68848
10.542332
10.544187
10.54825
10.55439
10.56254
10.572637
10.584625
10.598436
10.613995
10.631225
10.489133
10.490906
10.494794
10.500677
10.508499
10.51821
10.529753
10.543056
10.558029
10.574603
10.436729
10.438423
10.442136
10.447757
10.455233
10.464515
10.475552
10.488282
10.502642
10.518567
10.384776
10.386394
10.389943
10.395319
10.402474
10.411367
10.421932
10.434107
10.447838
10.46307
10.333484
10.335019
10.338388
10.343491
10.350286
10.358731
10.368783
10.380395
10.393518
10.40808
10.282528
10.28399
10.287198
10.292063
10.298535
10.306567
10.316122
10.327163
10.339648
10.353529
10.231962
10.233341
10.236368
10.240959
10.247076
10.25469
10.263769
10.274278
10.286168
10.299391
10.181664
10.182971
10.185837
10.19018
10.195966
10.203171
10.211769
10.22173
10.233022
10.245611
10.131494
10.132726
10.135432
10.139543
10.145029
10.151871
10.160048
10.169527
10.180263
10.19222
10.081704
10.082868
10.085425
10.089311
10.094494
10.100953
10.108663
10.117596
10.127717
10.138988
10.032036
10.033126
10.035518
10.039152
10.043998
10.050032
10.057229
10.065565
10.075038
10.085643
9.9818029
9.9828088
9.9850209
9.9883903
9.9928994
9.9985412
10.005311
10.013207
10.022231
10.032386
9.9308191
9.9317806
9.9338976
9.937129
9.9414667
9.9469148
9.9534575
9.9610759
9.9697492
9.9794536
9.8804208
9.8813508
9.8833955
9.8865083
9.8906688
9.8958639
9.9020778
9.9092898
9.9174735
9.9265969
9.8305106
9.83138
9.8332897
9.836193
9.8400635
9.8448805
9.8506443
9.8573557
9.8650145
9.8736208
9.7799283
9.7807322
9.7825017
9.7852019
9.7888209
9.793358
9.7988169
9.805205
9.8125317
9.8207885
9.7288848
9.7296593
9.7313666
9.7339787
9.7374883
9.7418867
9.7471664
9.7533188
9.7603324
9.7681907
9.6784665
9.6792105
9.6808472
9.6833423
9.6866792
9.6908481
9.6958372
9.701631
9.7082094
9.715567
9.6282803
9.6289689
9.6304821
9.6327847
9.6358582
9.6397033
9.6443212
9.6497132
9.6558818
9.662832
9.5773741
9.5780146
9.5794258
9.5815836
9.5844801
9.5881186
9.5925061
9.5976525
9.6035699
9.6102459
9.526204
9.5268258
9.5281978
9.5303013
9.5331241
9.5366619
9.5409112
9.5458668
9.5515205
9.557859
9.4756384
9.4762342
9.4775457
9.4795474
9.4822249
9.4855705
9.4895747
9.4942244
9.4995025
9.5054136
9.4252377
9.425785
9.4269882
9.4288207
9.4312737
9.4343469
9.4380414
9.442359
9.4473031
9.4528798
9.3741782
9.3746877
9.375811
9.3775315
9.3798431
9.3827494
9.3862575
9.3903766
9.3951187
9.400478
9.3229362
9.323431
9.3245238
9.3262022
9.3284607
9.3312952
9.3347022
9.338677
9.3432126
9.3482971
9.2722252
9.2727016
9.2737507
9.2753538
9.2774984
9.280178
9.283384
9.2871048
9.2913243
9.2960411
9.221792
9.2222282
9.2231879
9.2246511
9.2266046
9.2290489
9.2319849
9.235414
9.2393383
9.2437622
9.1707026
9.1711049
9.1719921
9.1733519
9.1751785
9.1774742
9.1802442
9.1834956
9.1872377
9.1914814
9.1195531
9.1199395
9.1207939
9.1221086
9.1238817
9.1261208
9.1288195
9.1319714
9.1355687
9.1396002
9.0686155
9.0689936
9.0698261
9.0710988
9.0728014
9.0749289
9.0774741
9.0804264
9.0837707
9.0874876
9.0184732
9.0188181
9.0195789
9.0207423
9.0222924
9.0242176
9.0265201
9.029201
9.0322609
9.0357008
8.967341
8.9676551
8.9683458
8.9694024
8.9708182
8.9725937
8.9747315
8.9772354
8.9801109
8.9833655
8.9168984
8.9171861
8.917827
8.9188202
8.9201615
8.9218549