/*--------------------------------*- C++ -*----------------------------------*\
  =========                 |
  \\      /  F ield         | OpenFOAM: The Open Source CFD Toolbox
   \\    /   O peration     | Website:  https://openfoam.org
    \\  /    A nd           | Version:  7
     \\/     M anipulation  |
\*---------------------------------------------------------------------------*/
FoamFile
{
    version     2.0;
    format      ascii;
    class       volScalarField;
    location    "80000";
    object      mu_lam;
}
// * * * * * * * * * * * * * * * * * * * * * * * * * * * * * * * * * * * * * //

dimensions      [1 -1 -1 0 0 0 0];

internalField   nonuniform List<scalar> 
87000
(
1.1481067e-05
1.1481081e-05
1.1481115e-05
1.1481188e-05
1.1481344e-05
1.1481737e-05
1.1483023e-05
1.148912e-05
1.1565182e-05
1.3119135e-05
1.1481657e-05
1.1481724e-05
1.148198e-05
1.1482528e-05
1.1483736e-05
1.1486702e-05
1.1495035e-05
1.1531432e-05
1.1758529e-05
1.3918838e-05
1.148317e-05
1.1483405e-05
1.1484243e-05
1.1486017e-05
1.148978e-05
1.149817e-05
1.152107e-05
1.1615401e-05
1.2041551e-05
1.4565575e-05
1.1486178e-05
1.1486814e-05
1.1488788e-05
1.1492797e-05
1.1500723e-05
1.1519083e-05
1.1572113e-05
1.1743222e-05
1.2381484e-05
1.5098486e-05
1.1491313e-05
1.1492719e-05
1.1496425e-05
1.1503494e-05
1.1518622e-05
1.155265e-05
1.1645705e-05
1.1886054e-05
1.2740416e-05
1.549539e-05
1.1499318e-05
1.1501789e-05
1.1507676e-05
1.1519765e-05
1.1543458e-05
1.1603188e-05
1.1742629e-05
1.2075214e-05
1.3090248e-05
1.5782559e-05
1.1510979e-05
1.1514559e-05
1.1523375e-05
1.1541734e-05
1.1580579e-05
1.1667384e-05
1.1858793e-05
1.2283223e-05
1.3417797e-05
1.6003327e-05
1.1526755e-05
1.1531231e-05
1.1544415e-05
1.156907e-05
1.1629131e-05
1.1745528e-05
1.1990302e-05
1.250182e-05
1.3719932e-05
1.6185525e-05
1.1547104e-05
1.1553111e-05
1.1570614e-05
1.1607943e-05
1.1687055e-05
1.1837897e-05
1.2103252e-05
1.272346e-05
1.3995926e-05
1.6341351e-05
1.1572286e-05
1.1580396e-05
1.1601666e-05
1.1656513e-05
1.1755202e-05
1.1941453e-05
1.2255234e-05
1.2943387e-05
1.4246909e-05
1.6473844e-05
1.1602345e-05
1.1613002e-05
1.1641117e-05
1.1711973e-05
1.1832789e-05
1.2052623e-05
1.2414622e-05
1.3159232e-05
1.4477292e-05
1.6592903e-05
1.1639154e-05
1.1650879e-05
1.1692021e-05
1.1775531e-05
1.1920394e-05
1.2173263e-05
1.2579177e-05
1.3369384e-05
1.469012e-05
1.6703735e-05
1.1682504e-05
1.1693739e-05
1.1749728e-05
1.1847267e-05
1.2017033e-05
1.2300779e-05
1.2747478e-05
1.3574363e-05
1.4889318e-05
1.6811801e-05
1.1732108e-05
1.1741825e-05
1.1813975e-05
1.1926953e-05
1.2121021e-05
1.2389023e-05
1.2917299e-05
1.3772955e-05
1.5076234e-05
1.6915272e-05
1.1787412e-05
1.1803681e-05
1.1885059e-05
1.2014144e-05
1.2230351e-05
1.2525587e-05
1.3087393e-05
1.396418e-05
1.5251522e-05
1.7013463e-05
1.1848382e-05
1.1874484e-05
1.1963794e-05
1.2109525e-05
1.234587e-05
1.2666703e-05
1.325787e-05
1.4149691e-05
1.5417717e-05
1.7108351e-05
1.1915235e-05
1.1953952e-05
1.2049631e-05
1.2212208e-05
1.2468299e-05
1.2811717e-05
1.3427699e-05
1.4329801e-05
1.5578253e-05
1.7200892e-05
1.1987727e-05
1.2037055e-05
1.2142868e-05
1.2321934e-05
1.2596011e-05
1.2960141e-05
1.3597084e-05
1.4505153e-05
1.5731936e-05
1.7292937e-05
1.2066686e-05
1.2127903e-05
1.2242744e-05
1.2437684e-05
1.2728612e-05
1.3111607e-05
1.3765991e-05
1.4676452e-05
1.5879841e-05
1.7386154e-05
1.2151862e-05
1.2224954e-05
1.2349044e-05
1.2557999e-05
1.2865788e-05
1.3266282e-05
1.3934505e-05
1.4844971e-05
1.6024094e-05
1.7479673e-05
1.2243291e-05
1.2329186e-05
1.2463479e-05
1.2684415e-05
1.2935981e-05
1.34224e-05
1.4102427e-05
1.5010176e-05
1.6166938e-05
1.7572716e-05
1.2340455e-05
1.2440853e-05
1.2584778e-05
1.2816033e-05
1.3078603e-05
1.3579741e-05
1.4268464e-05
1.5171625e-05
1.6304807e-05
1.7664112e-05
1.2453301e-05
1.2559949e-05
1.2712714e-05
1.2953267e-05
1.322522e-05
1.3738939e-05
1.443347e-05
1.53302e-05
1.643904e-05
1.7754837e-05
1.2575036e-05
1.2685857e-05
1.2847142e-05
1.3096482e-05
1.3375128e-05
1.3899281e-05
1.459774e-05
1.5487398e-05
1.6570745e-05
1.7845454e-05
1.2704679e-05
1.2818811e-05
1.2987959e-05
1.3244911e-05
1.3528716e-05
1.4061401e-05
1.4761435e-05
1.5642424e-05
1.6702697e-05
1.7938432e-05
1.2842161e-05
1.2958771e-05
1.3135044e-05
1.3397894e-05
1.3685548e-05
1.4224903e-05
1.4924954e-05
1.5795039e-05
1.6833128e-05
1.8032079e-05
1.2987326e-05
1.3105626e-05
1.3288535e-05
1.3556035e-05
1.3845362e-05
1.4389792e-05
1.5088177e-05
1.5945562e-05
1.6961943e-05
1.8126058e-05
1.3139982e-05
1.3259497e-05
1.3447464e-05
1.371845e-05
1.4008211e-05
1.455605e-05
1.5251272e-05
1.6097472e-05
1.7089408e-05
1.8220554e-05
1.3300022e-05
1.3419576e-05
1.3611972e-05
1.3885952e-05
1.4174101e-05
1.4723623e-05
1.5414986e-05
1.6248136e-05
1.7216522e-05
1.8315629e-05
1.3467568e-05
1.3586623e-05
1.3780952e-05
1.4057535e-05
1.4342788e-05
1.4892566e-05
1.557893e-05
1.6397563e-05
1.7345098e-05
1.8411284e-05
1.3642929e-05
1.3758847e-05
1.3955517e-05
1.4233715e-05
1.4514127e-05
1.5062852e-05
1.5742115e-05
1.6546077e-05
1.7473303e-05
1.8508472e-05
1.3823625e-05
1.3937411e-05
1.4135246e-05
1.4414167e-05
1.4688084e-05
1.523445e-05
1.5904832e-05
1.6696973e-05
1.7601186e-05
1.8608034e-05
1.4009456e-05
1.4121522e-05
1.4320258e-05
1.4598962e-05
1.486467e-05
1.5408316e-05
1.6070625e-05
1.6847076e-05
1.7728773e-05
1.8708609e-05
1.4200854e-05
1.4311137e-05
1.4510312e-05
1.4787882e-05
1.5043764e-05
1.558342e-05
1.6236057e-05
1.6996517e-05
1.7857965e-05
1.8810584e-05
1.4394846e-05
1.4505823e-05
1.4705144e-05
1.4980741e-05
1.5225172e-05
1.5758821e-05
1.6401185e-05
1.7146041e-05
1.7988659e-05
1.8914478e-05
1.4590586e-05
1.4705208e-05
1.4904645e-05
1.5177573e-05
1.5409922e-05
1.5935889e-05
1.6567828e-05
1.729871e-05
1.8119474e-05
1.9019467e-05
1.4791452e-05
1.4909202e-05
1.5108745e-05
1.5378215e-05
1.5596345e-05
1.6115684e-05
1.6736342e-05
1.7451108e-05
1.8250586e-05
1.9126126e-05
1.4999816e-05
1.5117923e-05
1.5317152e-05
1.5583443e-05
1.5783757e-05
1.6295801e-05
1.6904917e-05
1.7603348e-05
1.8382185e-05
1.9234852e-05
1.521552e-05
1.5331254e-05
1.5530243e-05
1.5791748e-05
1.5974827e-05
1.6476798e-05
1.7073503e-05
1.7756269e-05
1.8516601e-05
1.9345146e-05
1.5436032e-05
1.5550178e-05
1.5748212e-05
1.6002163e-05
1.6167881e-05
1.6661637e-05
1.724588e-05
1.7912473e-05
1.8651755e-05
1.945756e-05
1.5660945e-05
1.5774361e-05
1.5968712e-05
1.6217801e-05
1.6361606e-05
1.6846717e-05
1.7418491e-05
1.8068984e-05
1.8788444e-05
1.9571816e-05
1.5888217e-05
1.6001116e-05
1.6193484e-05
1.6436127e-05
1.6559033e-05
1.7031962e-05
1.7591181e-05
1.8225662e-05
1.8926393e-05
1.9687251e-05
1.6118016e-05
1.6232765e-05
1.6422378e-05
1.6656012e-05
1.6758203e-05
1.7221519e-05
1.7765929e-05
1.8383185e-05
1.9065755e-05
1.980479e-05
1.635226e-05
1.6468208e-05
1.665057e-05
1.6881628e-05
1.6957586e-05
1.7411308e-05
1.794286e-05
1.8542966e-05
1.9206778e-05
1.9924115e-05
1.6587377e-05
1.6703615e-05
1.6883106e-05
1.7108538e-05
1.7160106e-05
1.7599612e-05
1.8118263e-05
1.8702182e-05
1.9347271e-05
2.0044322e-05
1.6825048e-05
1.6942974e-05
1.7116662e-05
1.7334697e-05
1.7642676e-05
1.7793791e-05
1.8294337e-05
1.8863697e-05
1.949035e-05
2.0166976e-05
1.7065044e-05
1.7183103e-05
1.7351058e-05
1.7567043e-05
1.7865429e-05
1.7990205e-05
1.8476146e-05
1.9028221e-05
1.9635778e-05
2.0292296e-05
1.730563e-05
1.7425289e-05
1.75911e-05
1.7803501e-05
1.8093086e-05
1.818622e-05
1.8658822e-05
1.9194748e-05
1.9783972e-05
2.0420227e-05
1.7551479e-05
1.767139e-05
1.7831468e-05
1.8043095e-05
1.8322212e-05
1.8384128e-05
1.884305e-05
1.9362524e-05
1.9933843e-05
2.0550418e-05
1.7797349e-05
1.7917513e-05
1.8073366e-05
1.8286531e-05
1.8551509e-05
1.8583051e-05
1.9028274e-05
1.9531713e-05
2.0085501e-05
2.0681788e-05
1.8042744e-05
1.816678e-05
1.8318405e-05
1.8530079e-05
1.8784104e-05
1.878353e-05
1.9213022e-05
1.9700452e-05
2.0236712e-05
2.0814445e-05
1.8281053e-05
1.841653e-05
1.8561817e-05
1.8774756e-05
1.9015021e-05
1.9331969e-05
1.9402461e-05
1.9871539e-05
2.0390319e-05
2.09491e-05
1.8518169e-05
1.8665164e-05
1.8806749e-05
1.902041e-05
1.9248454e-05
1.9556975e-05
1.9592797e-05
2.0046468e-05
2.0547282e-05
2.1087122e-05
1.8757609e-05
1.8917041e-05
1.9053334e-05
1.9268144e-05
1.948455e-05
1.9784369e-05
1.9784088e-05
2.0221821e-05
2.0705388e-05
2.122721e-05
1.8997036e-05
1.9168859e-05
1.9301089e-05
1.951125e-05
1.9724412e-05
2.0012216e-05
1.9975886e-05
2.0397383e-05
2.0863566e-05
2.1367561e-05
1.923481e-05
1.9419929e-05
1.9549359e-05
1.9751558e-05
1.9967525e-05
2.0238058e-05
2.0565849e-05
2.0576204e-05
2.1023992e-05
2.1510444e-05
1.9472526e-05
1.9670891e-05
1.9801476e-05
1.9992444e-05
2.0210789e-05
2.0466688e-05
2.0784949e-05
2.0756186e-05
2.118631e-05
2.1654355e-05
1.9709884e-05
1.9922643e-05
2.005381e-05
2.0233412e-05
2.0454918e-05
2.0694779e-05
2.1000888e-05
2.1348847e-05
2.1353381e-05
2.1801734e-05
1.9946523e-05
2.0173602e-05
2.0306666e-05
2.0475158e-05
2.0698527e-05
2.0924212e-05
2.1219731e-05
2.1557334e-05
2.1521173e-05
2.1951442e-05
2.0183185e-05
2.0425264e-05
2.0556995e-05
2.0716589e-05
2.0943135e-05
2.1161122e-05
2.143975e-05
2.1765999e-05
2.1688578e-05
2.2102003e-05
2.041915e-05
2.0676352e-05
2.08047e-05
2.0958591e-05
2.1177104e-05
2.1398416e-05
2.1659442e-05
2.1973397e-05
2.232258e-05
2.2255942e-05
2.0653315e-05
2.0927232e-05
2.1051983e-05
2.1199123e-05
2.1409276e-05
2.1634932e-05
2.1878818e-05
2.2180661e-05
2.2515544e-05
2.2882137e-05
2.0885555e-05
2.1175946e-05
2.1298267e-05
2.1439373e-05
2.1640896e-05
2.1870995e-05
2.2104296e-05
2.238872e-05
2.2711647e-05
2.3064439e-05
2.1116717e-05
2.1415901e-05
2.1544022e-05
2.168134e-05
2.1872159e-05
2.2106462e-05
2.2331711e-05
2.2595964e-05
2.2906507e-05
2.3245731e-05
2.134569e-05
2.1654799e-05
2.1788529e-05
2.1926703e-05
2.2103037e-05
2.2328656e-05
2.2557663e-05
2.2806675e-05
2.3102872e-05
2.3429034e-05
2.1572467e-05
2.1892253e-05
2.2030683e-05
2.2169917e-05
2.233197e-05
2.25476e-05
2.2782941e-05
2.3022341e-05
2.3296384e-05
2.3610245e-05
2.179635e-05
2.2126841e-05
2.2268127e-05
2.2406424e-05
2.2558501e-05
2.2764911e-05
2.3004535e-05
2.323586e-05
2.3493794e-05
2.3789081e-05
2.2018764e-05
2.2360592e-05
2.2504249e-05
2.2638465e-05
2.2784333e-05
2.2980245e-05
2.3210323e-05
2.3447285e-05
2.3695226e-05
2.3968454e-05
2.2238858e-05
2.2588756e-05
2.2738749e-05
2.2869818e-05
2.3013557e-05
2.3195976e-05
2.3414432e-05
2.3658172e-05
2.3896447e-05
2.4157585e-05
2.2458153e-05
2.278095e-05
2.2970823e-05
2.3099346e-05
2.3244609e-05
2.3409911e-05
2.3619681e-05
2.3856249e-05
2.4096941e-05
2.4348913e-05
2.2677473e-05
2.2974484e-05
2.3202832e-05
2.3327416e-05
2.3471532e-05
2.3624414e-05
2.3823679e-05
2.4050755e-05
2.4297201e-05
2.4539143e-05
2.2908592e-05
2.3168122e-05
2.3430165e-05
2.3553455e-05
2.369197e-05
2.3839071e-05
2.4028668e-05
2.4244766e-05
2.4485271e-05
2.4730038e-05
2.3138794e-05
2.3363505e-05
2.3646893e-05
2.377523e-05
2.3911564e-05
2.4060386e-05
2.4232485e-05
2.4439995e-05
2.4669136e-05
2.4919712e-05
2.336609e-05
2.3558507e-05
2.3863214e-05
2.3997632e-05
2.4130052e-05
2.4280123e-05
2.4437143e-05
2.463424e-05
2.4854548e-05
2.5093323e-05
2.3592222e-05
2.3754225e-05
2.4078449e-05
2.4217968e-05
2.4348347e-05
2.4493706e-05
2.4643135e-05
2.482997e-05
2.503908e-05
2.5268232e-05
2.3816364e-05
2.3950394e-05
2.4294145e-05
2.4438341e-05
2.456504e-05
2.4703907e-05
2.4855829e-05
2.5024313e-05
2.5224969e-05
2.5444128e-05
2.4038691e-05
2.4146355e-05
2.4508055e-05
2.465729e-05
2.4778474e-05
2.4913877e-05
2.506652e-05
2.5219586e-05
2.5411259e-05
2.5620847e-05
2.4260032e-05
2.4343147e-05
2.4684504e-05
2.4871356e-05
2.4989855e-05
2.5122832e-05
2.5270264e-05
2.5423158e-05
2.5598e-05
2.5798285e-05
2.4478961e-05
2.4538453e-05
2.4852376e-05
2.5074553e-05
2.5201285e-05
2.5331787e-05
2.5472172e-05
2.5627134e-05
2.5785132e-05
2.597643e-05
2.4696793e-05
2.4734459e-05
2.5023013e-05
2.5278284e-05
2.5412324e-05
2.5538445e-05
2.5673923e-05
2.582675e-05
2.5981011e-05
2.6155351e-05
2.4913323e-05
2.4932258e-05
2.5195799e-05
2.5482138e-05
2.5622947e-05
2.5742501e-05
2.5875692e-05
2.60213e-05
2.6177786e-05
2.6336558e-05
2.5128633e-05
2.5148045e-05
2.5370774e-05
2.5686159e-05
2.5833196e-05
2.5946542e-05
2.6077471e-05
2.6216145e-05
2.6370699e-05
2.6526894e-05
2.5342838e-05
2.5362491e-05
2.5547764e-05
2.5877401e-05
2.602777e-05
2.6150639e-05
2.6276602e-05
2.6411378e-05
2.6558711e-05
2.6717514e-05
2.5556039e-05
2.5575743e-05
2.5726244e-05
2.6028596e-05
2.6223161e-05
2.6354861e-05
2.6474431e-05
2.6607063e-05
2.6747707e-05
2.6902482e-05
2.5768309e-05
2.5787895e-05
2.5906395e-05
2.6183862e-05
2.6419524e-05
2.6559292e-05
2.6672814e-05
2.6802213e-05
2.6937566e-05
2.7085219e-05
2.59798e-05
2.5999146e-05
2.6088672e-05
2.6343422e-05
2.6616931e-05
2.6754019e-05
2.6871858e-05
2.6994694e-05
2.7128405e-05
2.7269246e-05
2.6190721e-05
2.6209727e-05
2.6273167e-05
2.6507137e-05
2.6813045e-05
2.6943808e-05
2.7071708e-05
2.7188563e-05
2.7319619e-05
2.7454886e-05
2.6401296e-05
2.6419889e-05
2.6459896e-05
2.6674437e-05
2.6955613e-05
2.7135405e-05
2.7272507e-05
2.7383724e-05
2.7508341e-05
2.7642302e-05
2.661172e-05
2.6629833e-05
2.6668677e-05
2.6845417e-05
2.7104112e-05
2.732903e-05
2.7461591e-05
2.7580298e-05
2.7698838e-05
2.7830037e-05
2.6822351e-05
2.683987e-05
2.6877532e-05
2.7020439e-05
2.7258707e-05
2.7524755e-05
2.7649343e-05
2.777852e-05
2.7891537e-05
2.8016691e-05
2.7033436e-05
2.7050418e-05
2.7086765e-05
2.7199721e-05
2.7419101e-05
2.7688093e-05
2.7839894e-05
2.7973862e-05
2.8086559e-05
2.8205902e-05
2.7245288e-05
2.7261725e-05
2.7296738e-05
2.7383155e-05
2.7585116e-05
2.7833801e-05
2.803365e-05
2.8160081e-05
2.8284024e-05
2.8397903e-05
2.7458276e-05
2.7474163e-05
2.7507956e-05
2.757093e-05
2.7757114e-05
2.7987423e-05
2.8230713e-05
2.8350134e-05
2.8483938e-05
2.8593361e-05
2.7672825e-05
2.7688169e-05
2.7720774e-05
2.7770122e-05
2.7935573e-05
2.8148908e-05
2.840004e-05
2.8544317e-05
2.8671266e-05
2.8792253e-05
2.7889421e-05
2.7904236e-05
2.7935693e-05
2.7983278e-05
2.8120421e-05
2.8318047e-05
2.8551793e-05
2.8743066e-05
2.8863583e-05
2.8994975e-05
2.8108609e-05
2.8122916e-05
2.8153275e-05
2.8199175e-05
2.8311942e-05
2.8495428e-05
2.8713555e-05
2.8946721e-05
2.9061242e-05
2.9188289e-05
2.8331005e-05
2.834483e-05
2.837415e-05
2.8418466e-05
2.8510858e-05
2.8681591e-05
2.8885238e-05
2.9118984e-05
2.9264844e-05
2.9386148e-05
2.8557298e-05
2.8570671e-05
2.8599018e-05
2.8641855e-05
2.8717442e-05
2.8876707e-05
2.9067121e-05
2.92867e-05
2.9474866e-05
2.9590849e-05
2.8788276e-05
2.880123e-05
2.8828675e-05
2.8870151e-05
2.8932361e-05
2.9081426e-05
2.9259986e-05
2.9466884e-05
2.96919e-05
2.9803008e-05
2.9024851e-05
2.9037418e-05
2.906405e-05
2.9104295e-05
2.9158193e-05
2.9296698e-05
2.9464681e-05
2.9659852e-05
2.9880202e-05
3.0023562e-05
2.9268044e-05
2.9280269e-05
2.9306177e-05
2.9345334e-05
2.9397774e-05
2.9523121e-05
2.9681679e-05
2.9866255e-05
3.0075533e-05
3.0253182e-05
2.9518981e-05
2.9530907e-05
2.9556176e-05
2.9594371e-05
2.9645526e-05
2.9761567e-05
2.9911899e-05
3.0087186e-05
3.028675e-05
3.0492851e-05
2.9779006e-05
2.9790678e-05
2.9815405e-05
2.9852786e-05
2.9902859e-05
3.001352e-05
3.0156756e-05
3.0323951e-05
3.0514761e-05
3.0727643e-05
3.0049585e-05
3.0061048e-05
3.008533e-05
3.0122043e-05
3.0171235e-05
3.0280276e-05
3.041744e-05
3.0577599e-05
3.0760607e-05
3.0965435e-05
3.0332364e-05
3.0343665e-05
3.03676e-05
3.0403794e-05
3.0453899e-05
3.0563439e-05
3.0695456e-05
3.0849554e-05
3.1025831e-05
3.1223717e-05
3.062918e-05
3.0640366e-05
3.0664054e-05
3.0699888e-05
3.0758984e-05
3.0865022e-05
3.0992518e-05
3.1141471e-05
3.1312041e-05
3.1503977e-05
3.094204e-05
3.095316e-05
3.0976703e-05
3.101242e-05
3.1083863e-05
3.1186766e-05
3.1310479e-05
3.1455128e-05
3.1620919e-05
3.1807896e-05
3.1273353e-05
3.1284519e-05
3.1308163e-05
3.1350429e-05
3.1430456e-05
3.1530723e-05
3.1651312e-05
3.1792405e-05
3.1954248e-05
3.2137502e-05
3.1625732e-05
3.1636933e-05
3.1664012e-05
3.1722575e-05
3.1800883e-05
3.1898983e-05
3.2017025e-05
3.215526e-05
3.2314499e-05
3.249427e-05
3.2006335e-05
3.2024691e-05
3.206284e-05
3.2120359e-05
3.2197243e-05
3.2293596e-05
3.2410002e-05
3.2546396e-05
3.2703037e-05
3.2879864e-05
3.243347e-05
3.2451586e-05
3.2489309e-05
3.2546181e-05
3.2622225e-05
3.2717557e-05
3.2832363e-05
3.2966885e-05
3.3121417e-05
3.3295975e-05
3.2891036e-05
3.2908945e-05
3.2946196e-05
3.3002373e-05
3.3077505e-05
3.3171723e-05
3.3285201e-05
3.3418414e-05
3.3571833e-05
3.3744758e-05
3.3379426e-05
3.339714e-05
3.3434006e-05
3.348975e-05
3.3564441e-05
3.3658103e-05
3.3770919e-05
3.3903131e-05
3.4054983e-05
3.4217789e-05
3.3901072e-05
3.3918683e-05
3.3955354e-05
3.4010669e-05
3.4084658e-05
3.4177437e-05
3.4289182e-05
3.4420513e-05
3.457136e-05
3.4704493e-05
3.4455281e-05
3.4472785e-05
3.4509251e-05
3.4564261e-05
3.4637837e-05
3.4730089e-05
3.4841196e-05
3.4971349e-05
3.5120311e-05
3.5222938e-05
3.5042459e-05
3.5059755e-05
3.5095799e-05
3.515018e-05
3.5222972e-05
3.5314556e-05
3.5424801e-05
3.5553812e-05
3.5686245e-05
3.5774843e-05
3.5661506e-05
3.5678663e-05
3.5714433e-05
3.5768384e-05
3.5840517e-05
3.59309e-05
3.6039648e-05
3.616672e-05
3.6272022e-05
3.6360713e-05
3.6306335e-05
3.6323234e-05
3.6358479e-05
3.6411631e-05
3.6482673e-05
3.6571654e-05
3.6678683e-05
3.6803564e-05
3.6888846e-05
3.6977762e-05
3.6973651e-05
3.6990199e-05
3.7024725e-05
3.7076795e-05
3.7146365e-05
3.7233457e-05
3.7338103e-05
3.7456313e-05
3.7535289e-05
3.7624089e-05
3.7657137e-05
3.7673232e-05
3.7706815e-05
3.7757441e-05
3.7825058e-05
3.790966e-05
3.8011256e-05
3.8129282e-05
3.8207781e-05
3.8296021e-05
3.8349086e-05
3.8364612e-05
3.8397014e-05
3.8445852e-05
3.8511057e-05
3.8592599e-05
3.8690473e-05
3.8804553e-05
3.8901249e-05
3.8988377e-05
3.9040838e-05
3.9055651e-05
3.9086567e-05
3.9133157e-05
3.9195347e-05
3.9273107e-05
3.9366378e-05
3.9475118e-05
3.9599214e-05
3.9692332e-05
3.9724638e-05
3.9738707e-05
3.9768084e-05
3.9812351e-05
3.9871424e-05
3.9945247e-05
4.0033767e-05
4.0136924e-05
4.0254653e-05
4.0386868e-05
4.0392972e-05
4.0406166e-05
4.0433714e-05
4.0475504e-05
4.0531268e-05
4.0600947e-05
4.0684483e-05
4.0781813e-05
4.0892866e-05
4.1017565e-05
4.1040245e-05
4.1052638e-05
4.1078528e-05
4.1117543e-05
4.1169607e-05
4.1234985e-05
4.131355e-05
4.1405094e-05
4.1509553e-05
4.162686e-05
4.1662636e-05
4.1674259e-05
4.1698556e-05
4.1735179e-05
4.1784061e-05
4.1845154e-05
4.1918416e-05
4.2004043e-05
4.2102252e-05
4.2212577e-05
4.2258565e-05
4.2269477e-05
4.2292311e-05
4.232674e-05
4.2372706e-05
4.2430174e-05
4.2499115e-05
4.2579499e-05
4.2671296e-05
4.2774474e-05
4.2828099e-05
4.28383e-05
4.2859748e-05
4.2892248e-05
4.2935653e-05
4.2989939e-05
4.305509e-05
4.3131094e-05
4.3217939e-05
4.3315614e-05
4.337502e-05
4.3384201e-05
4.340393e-05
4.3434558e-05
4.3475471e-05
4.3526652e-05
4.3588147e-05
4.3659907e-05
4.3741933e-05
4.3834805e-05
4.3909643e-05
4.3918435e-05
4.3936936e-05
4.3964878e-05
4.4002238e-05
4.4049028e-05
4.4105274e-05
4.4171014e-05
4.424812e-05
4.4336255e-05
4.4420993e-05
4.44294e-05
4.4447094e-05
4.4473823e-05
4.450957e-05
4.4554355e-05
4.4608213e-05
4.467119e-05
4.4743341e-05
4.4824728e-05
4.4909641e-05
4.4917713e-05
4.4934723e-05
4.4960447e-05
4.4994856e-05
4.5037973e-05
4.5089834e-05
4.5150539e-05
4.5220734e-05
4.5299958e-05
4.5378586e-05
4.5386389e-05
4.5402832e-05
4.5427679e-05
4.5461196e-05
4.5503268e-05
4.5553886e-05
4.5613169e-05
4.5681189e-05
4.5757982e-05
4.5830613e-05
4.5838268e-05
4.5854416e-05
4.587882e-05
4.5911474e-05
4.5952405e-05
4.6001658e-05
4.6059291e-05
4.6125374e-05
4.6199998e-05
4.6266777e-05
4.6274254e-05
4.6290033e-05
4.6313883e-05
4.6345798e-05
4.6385807e-05
4.6433956e-05
4.6490304e-05
4.6554924e-05
4.6627909e-05
4.6688239e-05
4.6695551e-05
4.671099e-05
4.673433e-05
4.6765565e-05
4.6804724e-05
4.6851966e-05
4.6907289e-05
4.6970738e-05
4.7042409e-05
4.709591e-05
4.7103105e-05
4.7118305e-05
4.7141284e-05
4.7172038e-05
4.7210596e-05
4.7257004e-05
4.7311322e-05
4.737363e-05
4.7444264e-05
4.7490481e-05
4.7497584e-05
4.7512598e-05
4.7535297e-05
4.7565678e-05
4.7603768e-05
4.7649615e-05
4.7703277e-05
4.7764826e-05
4.7834357e-05
4.7872522e-05
4.7879527e-05
4.78944e-05
4.791689e-05
4.7946991e-05
4.798473e-05
4.8030155e-05
4.8083323e-05
4.8144306e-05
4.8213196e-05
4.8244356e-05
4.8251231e-05
4.826577e-05
4.8287753e-05
4.8317173e-05
4.8354055e-05
4.839896e-05
4.8451774e-05
4.8512349e-05
4.8580777e-05
4.8605231e-05
4.8612066e-05
4.8626525e-05
4.8648388e-05
4.8677648e-05
4.8714328e-05
4.8758472e-05
4.8810131e-05
4.8869657e-05
4.8937248e-05
4.8955186e-05
4.8961995e-05
4.8976406e-05
4.8998196e-05
4.9027358e-05
4.9063916e-05
4.9107911e-05
4.9159394e-05
4.9218429e-05
4.9285229e-05
4.9294311e-05
4.9301108e-05
4.9315498e-05
4.9337258e-05
4.9366378e-05
4.9402884e-05
4.9446816e-05
4.9498224e-05
4.9557171e-05
4.9623741e-05
4.9624755e-05
4.9631473e-05
4.9645693e-05
4.9667193e-05
4.9695963e-05
4.9732025e-05
4.9775416e-05
4.9826551e-05
4.9885516e-05
4.9952106e-05
4.994473e-05
4.9951665e-05
4.9966324e-05
4.9988484e-05
5.0017708e-05
5.0053841e-05
5.0097316e-05
5.014818e-05
5.0206489e-05
5.0272321e-05
5.0254444e-05
5.0261394e-05
5.0276089e-05
5.0298303e-05
5.0328024e-05
5.0365272e-05
5.0409149e-05
5.0460192e-05
5.0518705e-05
5.0584767e-05
5.0557854e-05
5.0564742e-05
5.0579301e-05
5.0601308e-05
5.0630748e-05
5.0667641e-05
5.0712017e-05
5.0763163e-05
5.0821134e-05
5.0887044e-05
5.0852772e-05
5.0859693e-05
5.0874326e-05
5.0896445e-05
5.0926037e-05
5.0963119e-05
5.1007724e-05
5.1059893e-05
5.1118804e-05
5.1184646e-05
5.1140108e-05
5.1146976e-05
5.1161495e-05
5.118344e-05
5.1212796e-05
5.1249578e-05
5.1293813e-05
5.1345925e-05
5.1406107e-05
5.1472782e-05
5.1421582e-05
5.14285e-05
5.1443128e-05
5.1465242e-05
5.1494828e-05
5.1531901e-05
5.157649e-05
5.1628634e-05
5.1688378e-05
5.1755636e-05
5.1654494e-05
5.1672659e-05
5.1710016e-05
5.1738377e-05
5.1767768e-05
5.1804595e-05
5.1849025e-05
5.1901661e-05
5.1961976e-05
5.2030043e-05
5.1860759e-05
5.1879277e-05
5.1917339e-05
5.1974721e-05
5.2037574e-05
5.2074803e-05
5.2119572e-05
5.2171916e-05
5.2231881e-05
5.2299531e-05
5.2060076e-05
5.2078809e-05
5.2117293e-05
5.2175287e-05
5.2252899e-05
5.2335738e-05
5.2380275e-05
5.243264e-05
5.2493347e-05
5.2561837e-05
5.2256914e-05
5.2275833e-05
5.2314908e-05
5.237377e-05
5.2452514e-05
5.2551266e-05
5.2639755e-05
5.269252e-05
5.275293e-05
5.2821061e-05
5.2451872e-05
5.2470446e-05
5.2508573e-05
5.2567306e-05
5.2646496e-05
5.2745809e-05
5.286533e-05
5.294331e-05
5.3003429e-05
5.3071554e-05
5.2642185e-05
5.2661014e-05
5.2699659e-05
5.2757764e-05
5.2837042e-05
5.2937278e-05
5.3057908e-05
5.3190864e-05
5.3251592e-05
5.3320003e-05
5.2831634e-05
5.2850657e-05
5.2889695e-05
5.2948376e-05
5.3026638e-05
5.3127253e-05
5.3248507e-05
5.3390172e-05
5.3495525e-05
5.3564297e-05
5.3019765e-05
5.3038874e-05
5.307807e-05
5.3136974e-05
5.3215651e-05
5.3315172e-05
5.3436857e-05
5.3579058e-05
5.373524e-05
5.3804364e-05
5.32071e-05
5.3226359e-05
5.3265863e-05
5.3325218e-05
5.3404331e-05
5.3503112e-05
5.3623908e-05
5.3765773e-05
5.3928449e-05
5.4040296e-05
5.3393037e-05
5.3412432e-05
5.3452214e-05
5.3511976e-05
5.3591605e-05
5.3690992e-05
5.3810909e-05
5.3952514e-05
5.4114339e-05
5.4272366e-05
5.3577544e-05
5.3597061e-05
5.3637097e-05
5.3697227e-05
5.3777324e-05
5.3877257e-05
5.3996858e-05
5.4138108e-05
5.4299549e-05
5.4480707e-05
5.3762295e-05
5.3781809e-05
5.3821827e-05
5.3881921e-05
5.3961951e-05
5.4061781e-05
5.4181891e-05
5.432233e-05
5.4483112e-05
5.4663503e-05
5.3946934e-05
5.3966528e-05
5.4006715e-05
5.406705e-05
5.4147378e-05
5.4247529e-05
5.436729e-05
5.4506529e-05
5.4665564e-05
5.4844524e-05
5.4130134e-05
5.4149791e-05
5.4190115e-05
5.4250642e-05
5.4331195e-05
5.4431579e-05
5.4551551e-05
5.4690797e-05
5.4848724e-05
5.5025938e-05
5.431389e-05
5.4333469e-05
5.4373626e-05
5.4433893e-05
5.4514086e-05
5.4613999e-05
5.4733759e-05
5.4873001e-05
5.5030085e-05
5.5205779e-05
5.4497686e-05
5.4517269e-05
5.4557438e-05
5.4617711e-05
5.4697879e-05
5.4797707e-05
5.4916903e-05
5.5055098e-05
5.5210798e-05
5.5383985e-05
5.4679657e-05
5.469923e-05
5.4739385e-05
5.4799617e-05
5.4879693e-05
5.4979341e-05
5.5098228e-05
5.5235939e-05
5.5391237e-05
5.5562715e-05
5.4864201e-05
5.4883586e-05
5.4923356e-05
5.4983006e-05
5.5062297e-05
5.5160954e-05
5.5278637e-05
5.5414929e-05
5.5569342e-05
5.5739117e-05
5.5046978e-05
5.5066283e-05
5.51059e-05
5.5165302e-05
5.5244221e-05
5.5342345e-05
5.5459291e-05
5.5594591e-05
5.5747669e-05
5.5915404e-05
5.5230856e-05
5.524991e-05
5.5289014e-05
5.5347643e-05
5.5425529e-05
5.5522359e-05
5.5637748e-05
5.5771767e-05
5.592356e-05
5.6090335e-05
5.5414913e-05
5.5433825e-05
5.5472652e-05
5.5530848e-05
5.5608119e-05
5.5704116e-05
5.5818412e-05
5.5950491e-05
5.6099734e-05
5.6264408e-05
5.5599058e-05
5.561766e-05
5.5655854e-05
5.5713102e-05
5.5789109e-05
5.588353e-05
5.59965e-05
5.6127333e-05
5.6275009e-05
5.6438387e-05
5.5784919e-05
5.5803335e-05
5.5841168e-05
5.5897862e-05
5.5973099e-05
5.6066504e-05
5.6177617e-05
5.6305887e-05
5.6450665e-05
5.6611201e-05
5.5970369e-05
5.5988426e-05
5.6025531e-05
5.6081134e-05
5.6154921e-05
5.6246523e-05
5.6356488e-05
5.6483445e-05
5.6626632e-05
5.6785316e-05
5.6158484e-05
5.6176339e-05
5.6213059e-05
5.6268078e-05
5.6341067e-05
5.6431638e-05
5.6539315e-05
5.6663531e-05
5.6803624e-05
5.6958883e-05
5.6346298e-05
5.6363765e-05
5.6399699e-05
5.645354e-05
5.6524968e-05
5.66136e-05
5.6719458e-05
5.6842088e-05
5.6980348e-05
5.7133523e-05
5.6535215e-05
5.6552443e-05
5.658791e-05
5.6641054e-05
5.6711548e-05
5.6799005e-05
5.6902987e-05
5.702369e-05
5.7159775e-05
5.7310543e-05
5.6726575e-05
5.6743515e-05
5.6778417e-05
5.683072e-05
5.69001e-05
5.6986173e-05
5.7088477e-05
5.720714e-05
5.7341745e-05
5.7490921e-05
5.6920653e-05
5.6937379e-05
5.6971876e-05
5.7023582e-05
5.7092181e-05
5.71773e-05
5.7278487e-05
5.7395211e-05
5.7526852e-05
5.7672758e-05
5.7116045e-05
5.7132394e-05
5.7166125e-05
5.7216688e-05
5.7283774e-05
5.7367017e-05
5.7465981e-05
5.7580146e-05
5.7709142e-05
5.7854571e-05
5.730989e-05
5.7326127e-05
5.7359671e-05
5.7409975e-05
5.7476738e-05
5.7559615e-05
5.7658189e-05
5.7771972e-05
5.7900397e-05
5.8042868e-05
5.7510119e-05
5.7526012e-05
5.7558859e-05
5.760812e-05
5.7673505e-05
5.7754676e-05
5.785123e-05
5.7962692e-05
5.8088513e-05
5.8228117e-05
5.7706889e-05
5.772245e-05
5.7754622e-05
5.7802874e-05
5.7867119e-05
5.7948169e-05
5.8044644e-05
5.8156105e-05
5.8282047e-05
5.842194e-05
5.7909543e-05
5.7925063e-05
5.7957197e-05
5.8005418e-05
5.8069458e-05
5.8149012e-05
5.8243718e-05
5.8353149e-05
5.8476818e-05
5.8614211e-05
5.8111403e-05
5.8126631e-05
5.8158173e-05
5.8205508e-05
5.8268376e-05
5.8346483e-05
5.8439475e-05
5.8546944e-05
5.867071e-05
5.8808728e-05
5.8313111e-05
5.8328336e-05
5.8359918e-05
5.8407337e-05
5.8470347e-05
5.8548675e-05
5.8641996e-05
5.8749933e-05
5.8872053e-05
5.9007904e-05
5.8520145e-05
5.8535116e-05
5.8566179e-05
5.8612825e-05
5.8674813e-05
5.8751878e-05
5.8843708e-05
5.8949935e-05
5.9070143e-05
5.9203896e-05
5.8711169e-05
5.8738429e-05
5.8768993e-05
5.8814891e-05
5.8875892e-05
5.8952065e-05
5.904435e-05
5.9151163e-05
5.9272115e-05
5.9406798e-05
5.8891531e-05
5.8946308e-05
5.8977004e-05
5.9023121e-05
5.9084434e-05
5.9160698e-05
5.925163e-05
5.9356896e-05
5.9476119e-05
5.960891e-05
5.9076814e-05
5.9131618e-05
5.9184953e-05
5.9230393e-05
5.9290808e-05
5.9365965e-05
5.9455588e-05
5.9559358e-05
5.9676913e-05
5.9808726e-05
5.9262434e-05
5.9314401e-05
5.9389527e-05
5.9434748e-05
5.9495523e-05
5.9571134e-05
5.9661306e-05
5.9765724e-05
5.988403e-05
6.0015857e-05
5.9458793e-05
5.9508183e-05
5.9601923e-05
5.9646958e-05
5.9706842e-05
5.9781354e-05
5.9870232e-05
5.9973172e-05
6.0089832e-05
6.0219858e-05
5.9656435e-05
5.9703058e-05
5.9797835e-05
5.9855822e-05
5.991485e-05
5.9988304e-05
6.0075933e-05
6.0177448e-05
6.0292521e-05
6.0423802e-05
5.9853733e-05
5.9897806e-05
5.9988172e-05
6.0063793e-05
6.0123758e-05
6.0198326e-05
6.0287215e-05
6.0390095e-05
6.0506598e-05
6.0636346e-05
6.0068093e-05
6.0109691e-05
6.0194464e-05
6.028291e-05
6.0341826e-05
6.0415103e-05
6.0502472e-05
6.0603622e-05
6.0718203e-05
6.0845858e-05
6.0282068e-05
6.0320975e-05
6.0400371e-05
6.0498738e-05
6.0556643e-05
6.0628673e-05
6.0714576e-05
6.0814056e-05
6.092678e-05
6.105241e-05
6.0495177e-05
6.0531498e-05
6.0605723e-05
6.0711358e-05
6.0768285e-05
6.0839111e-05
6.0923597e-05
6.1021462e-05
6.1132391e-05
6.1256065e-05
6.0707279e-05
6.0741118e-05
6.0810373e-05
6.0914023e-05
6.0976841e-05
6.1046508e-05
6.112963e-05
6.122594e-05
6.1335139e-05
6.1456926e-05
6.091826e-05
6.0949711e-05
6.1014183e-05
6.1110792e-05
6.1182368e-05
6.1250916e-05
6.1332717e-05
6.142752e-05
6.1535045e-05
6.1655211e-05
6.1128017e-05
6.1157179e-05
6.1217064e-05
6.1306917e-05
6.1385188e-05
6.1455623e-05
6.1539445e-05
6.1636286e-05
6.1745733e-05
6.1867365e-05
6.1352333e-05
6.1379837e-05
6.1436507e-05
6.1521683e-05
6.1606305e-05
6.1674953e-05
6.1756674e-05
6.1851127e-05
6.1957927e-05
6.2076681e-05
6.1580865e-05
6.1606235e-05
6.1658628e-05
6.1737502e-05
6.1824407e-05
6.1891318e-05
6.1970999e-05
6.2063132e-05
6.2167358e-05
6.2283312e-05
6.1807606e-05
6.1830921e-05
6.1879195e-05
6.1951998e-05
6.2039541e-05
6.2104764e-05
6.2182463e-05
6.227234e-05
6.2374063e-05
6.2487294e-05
6.2032531e-05
6.2053872e-05
6.2098188e-05
6.2165152e-05
6.2251804e-05
6.2315392e-05
6.239117e-05
6.2478861e-05
6.2578158e-05
6.2688748e-05
6.2255599e-05
6.2275043e-05
6.2315553e-05
6.2376899e-05
6.2459417e-05
6.2523259e-05
6.2597175e-05
6.2682746e-05
6.2779689e-05
6.2887714e-05
6.2476787e-05
6.2494409e-05
6.253126e-05
6.2587205e-05
6.2662689e-05
6.2728438e-05
6.2800551e-05
6.2884067e-05
6.2978725e-05
6.3086574e-05
6.269607e-05
6.271194e-05
6.2745276e-05
6.2796027e-05
6.2866823e-05
6.2935918e-05
6.3009296e-05
6.3093927e-05
6.3189395e-05
6.329527e-05
6.2924633e-05
6.2939642e-05
6.2971392e-05
6.3020006e-05
6.3086265e-05
6.3154866e-05
6.3225608e-05
6.3307235e-05
6.339936e-05
6.3501585e-05
6.315328e-05
6.3167188e-05
6.3196697e-05
6.3241932e-05
6.3303661e-05
6.3371142e-05
6.3439323e-05
6.3518027e-05
6.3606901e-05
6.3705575e-05
6.3379449e-05
6.3392299e-05
6.3419655e-05
6.3461645e-05
6.3519021e-05
6.3584805e-05
6.3650495e-05
6.3726359e-05
6.3812069e-05
6.3907287e-05
6.3603172e-05
6.3615005e-05
6.3640293e-05
6.3679165e-05
6.373236e-05
6.3795913e-05
6.3859182e-05
6.3932283e-05