/*--------------------------------*- C++ -*----------------------------------*\
  =========                 |
  \\      /  F ield         | OpenFOAM: The Open Source CFD Toolbox
   \\    /   O peration     | Website:  https://openfoam.org
    \\  /    A nd           | Version:  7
     \\/     M anipulation  |
\*---------------------------------------------------------------------------*/
FoamFile
{
    version     2.0;
    format      ascii;
    class       volScalarField;
    location    "80000";
    object      nut;
}
// * * * * * * * * * * * * * * * * * * * * * * * * * * * * * * * * * * * * * //

dimensions      [0 2 -1 0 0 0 0];

internalField   nonuniform List<scalar> 
87000
(
0.014361949
0.013582168
0.012094367
0.010116457
0.0078688353
0.0055359855
0.0032248507
0.0013095356
0.00033586837
0.00010475938
0.011103036
0.010476144
0.0092786017
0.0077434939
0.0060346142
0.0042860719
0.002599142
0.0012126
0.00047595027
0.0002499241
0.0093363696
0.0088393927
0.0078748458
0.0066316152
0.0052384167
0.0037972182
0.00241276
0.001272974
0.00062223831
0.00039490451
0.0081231085
0.0077041839
0.0068861658
0.0058304547
0.0046510067
0.0034366277
0.002284311
0.0013403766
0.00076518147
0.00054159309
0.0072126638
0.0068488693
0.006135698
0.0052158455
0.0041958734
0.003158925
0.0021914199
0.0014051076
0.00090293077
0.00068751231
0.0064991181
0.0061782323
0.0055472844
0.004734465
0.0038409926
0.0029464849
0.0021270602
0.0014670644
0.0010334974
0.00083040653
0.0059249625
0.0056393227
0.0050764163
0.0043522976
0.003562928
0.0027848405
0.0020850643
0.0015273769
0.0011555312
0.00096771612
0.005454365
0.0051985915
0.0046937322
0.0040452593
0.0033437895
0.0026623998
0.002060772
0.0015865991
0.0012687205
0.0010978998
0.0050631653
0.0048331802
0.004378758
0.0037958993
0.0031699546
0.0025701301
0.0020499391
0.0016451781
0.0013737627
0.001220598
0.0047342863
0.0045268492
0.00411676
0.0035916116
0.0030314305
0.0025014886
0.0020493837
0.0017031578
0.001471738
0.0013361379
0.004455265
0.0042677471
0.0038969366
0.0034230557
0.0029207779
0.0024513788
0.0020573813
0.0017606244
0.0015636362
0.0014450313
0.0042168137
0.004047035
0.0037112777
0.003283204
0.0028323577
0.0024160151
0.0020721965
0.0018177015
0.0016504465
0.0015479151
0.0040118818
0.0038579936
0.0035537468
0.0031668608
0.0027621207
0.0023930243
0.0020925449
0.0018743543
0.0017329135
0.0016453665
0.0038348492
0.0036952378
0.0034194875
0.0030698487
0.0027065633
0.0023794419
0.0021172366
0.0019305415
0.0018116717
0.0017379767
0.0036813602
0.0035546244
0.0033047057
0.0029889275
0.0026631932
0.0023732921
0.0021454007
0.0019864712
0.0018874744
0.0018265233
0.0035480932
0.0034330372
0.0032066102
0.0029217417
0.0026302203
0.0023741267
0.0021766144
0.0020422276
0.0019608615
0.0019116162
0.0034323987
0.0033279785
0.0031229845
0.0028664192
0.0026061681
0.0023807228
0.0022103489
0.0020977523
0.0020321248
0.0019936511
0.0033320579
0.0032373592
0.0030520153
0.0028214259
0.0025898175
0.0023922193
0.0022462465
0.0021530825
0.0021015594
0.0020730232
0.0032452593
0.0031594762
0.0029922137
0.0027855378
0.002580258
0.002408072
0.0022841203
0.0022083569
0.0021695275
0.0021501305
0.0031706598
0.0030931035
0.0029425685
0.0027581043
0.0025774377
0.0024279563
0.0023237047
0.0022635427
0.0022361894
0.002225185
0.0031070195
0.0030370368
0.0029018985
0.002737758
0.0025793765
0.0024508795
0.0023645171
0.0023184561
0.0023015232
0.002298279
0.0030530634
0.0029900631
0.0028690335
0.0027234468
0.0025850661
0.0024763585
0.0024065207
0.0023732773
0.0023658162
0.0023697689
0.0030079512
0.0029513934
0.0028434143
0.0027150591
0.0025954821
0.0025045633
0.0024497753
0.0024281937
0.0024293841
0.0024400023
0.0029710806
0.0029204531
0.0028245803
0.0027122117
0.0026099342
0.0025351835
0.0024940802
0.0024831308
0.0024922797
0.002509097
0.0029418246
0.0028966953
0.0028120447
0.0027144476
0.0026280314
0.0025680329
0.0025393633
0.0025380931
0.0025545641
0.0025771523
0.0029196691
0.0028796427
0.0028053733
0.0027213731
0.0026494676
0.0026029264
0.0025855595
0.0025931021
0.0026162896
0.0026442617
0.0029041675
0.0028688613
0.002804158
0.0027326508
0.0026740113
0.0026397351
0.0026326459
0.0026482316
0.0026775791
0.0027105659
0.002894917
0.0028639689
0.0028080822
0.0027480223
0.0027014888
0.0026783691
0.0026806154
0.0027035141
0.0027385159
0.0027761777
0.0028915685
0.0028646423
0.0028168525
0.0027672464
0.0027317226
0.0027187211
0.002729415
0.0027589446
0.0027991644
0.0028411914
0.00289379
0.0028705529
0.0028301551
0.002790077
0.0027645427
0.0027606883
0.0027790071
0.0028145748
0.0028595927
0.0029056995
0.002901293
0.0028814119
0.0028477513
0.0028163278
0.0027998175
0.0028042068
0.0028294119
0.00287048
0.0029198897
0.0029698021
0.002913771
0.0028969521
0.002869418
0.0028458275
0.0028374556
0.0028492692
0.0028806905
0.0029267114
0.0029801252
0.003033571
0.0029309468
0.0029169284
0.0028949567
0.0028784298
0.0028773624
0.0028958136
0.0029327807
0.0029832402
0.003040331
0.0030970693
0.0029525971
0.0029411171
0.0029241541
0.0029139584
0.0029193991
0.0029437337
0.0029856365
0.003040124
0.0031005902
0.0031603959
0.0029784683
0.0029692796
0.0029568197
0.0029522811
0.0029635044
0.0029930582
0.0030393656
0.0030974724
0.0031609897
0.0032236317
0.003008317
0.0030012042
0.0029927913
0.0029932929
0.0030096319
0.0030438034
0.0030939944
0.0031552887
0.0032215461
0.0032868122
0.0030419101
0.0030366796
0.0030318886
0.0030368534
0.0030576671
0.0030958625
0.0031494318
0.0032135362
0.0032822877
0.0033499926
0.0030790494
0.0030755058
0.0030739372
0.0030828219
0.0031075376
0.0031492001
0.0032057096
0.0032723154
0.003343328
0.0034132803
0.0031195713
0.0031175218
0.0031187962
0.0031311046
0.0031592253
0.003203898
0.0032629602
0.0033317468
0.0034047546
0.0034767507
0.003163291
0.0031625523
0.0031663172
0.003181632
0.0032126711
0.0032599126
0.0033211373
0.0033917807
0.0034665421
0.0035404086
0.0032099502
0.0032103821
0.0032163578
0.0032342835
0.0032677897
0.0033171536
0.0033801745
0.003452403
0.003528723
0.0036043006
0.0032594188
0.0032609102
0.0032688242
0.0032889538
0.003324537
0.0033756567
0.0034401501
0.003513701
0.0035913701
0.0036684968
0.0033116709
0.0033140702
0.0033236242
0.0033456089
0.0033828631
0.0034353766
0.0035010381
0.003575668
0.0036544893
0.003733006
0.0033663553
0.0033695207
0.0033804332
0.0034038515
0.0034422587
0.0034957321
0.0035623053
0.0036378703
0.0037177536
0.0037975921
0.0034224556
0.0034261333
0.0034378247
0.0034618872
0.0035007231
0.0035556715
0.0036236447
0.0037003536
0.0037813592
0.0038625067
0.0034799477
0.0034841158
0.003496698
0.0035219206
0.0035626065
0.0036188564
0.0036873988
0.003764708
0.0038464701
0.0039286498
0.0035402573
0.0035452245
0.0035593733
0.0035865603
0.0036291335
0.0036850661
0.0037532926
0.0038305881
0.0039127033
0.0039956413
0.003603586
0.0036092479
0.0036245493
0.0036527082
0.0036955577
0.0037517202
0.0038197972
0.0038970121
0.0039793453
0.0040629105
0.0036693673
0.0036754807
0.0036914659
0.0037201205
0.0037630861
0.0038193586
0.0038872532
0.003964284
0.0040466838
0.0041307151
0.0037371214
0.0037435174
0.0037598866
0.0037887141
0.0038315805
0.0038875593
0.0039550447
0.0040318052
0.0041142365
0.0041986996
0.0038058596
0.0038123416
0.0038286834
0.0038571636
0.0038992975
0.0039544331
0.0040220897
0.0040992609
0.0041820997
0.0042671432
0.0038752669
0.0038817959
0.0038981477
0.0039265569
0.0039686735
0.0040247037
0.004092702
0.0041694285
0.0042520789
0.0043372893
0.0039467857
0.0039536599
0.0039706419
0.0039998858
0.0040429555
0.0040996826
0.0041663901
0.0042418361
0.0043236627
0.0044085922
0.0040208045
0.004028018
0.0040455245
0.0040751267
0.0041179644
0.0041736195
0.0042393818
0.0043137648
0.004394838
0.0044794969
0.0040961622
0.0041034681
0.00412096
0.0041501037
0.004191856
0.0042460036
0.0043105826
0.0043845955
0.0044656267
0.004550396
0.0041722603
0.0041795231
0.0041967916
0.0042254115
0.0042664323
0.0043198818
0.0043848207
0.0044586039
0.0045386292
0.0046228573
0.0042494728
0.0042567775
0.0042740599
0.0043026034
0.0043434971
0.00439674
0.0044611532
0.0045330101
0.0046119097
0.004695717
0.0043280028
0.0043353767
0.0043526993
0.0043810809
0.0044215157
0.0044739023
0.0045371198
0.0046093309
0.0046879842
0.0047706645
0.0044083662
0.0044158469
0.0044332978
0.0044616682
0.0045019157
0.0045539792
0.0046168581
0.0046886716
0.0047654473
0.0048464295
0.0044903869
0.0044979287
0.0045153931
0.0045435408
0.0045831781
0.0046341317
0.0046953355
0.0047650332
0.0048405893
0.0049206002
0.0045734049
0.0045808883
0.0045981165
0.0046256989
0.0046643173
0.0047138296
0.0047733061
0.0048413171
0.0049162244
0.0049952174
0.0046572063
0.0046645797
0.0046814856
0.0047084492
0.0047461214
0.0047944972
0.0048527884
0.0049197181
0.0049935288
0.0050718333
0.0047418402
0.0047491133
0.0047657383
0.0047921864
0.0048290932
0.0048765223
0.0049337305
0.0049994313
0.0050718664
0.0051489849
0.0048272399
0.0048344265
0.0048508119
0.0048767996
0.0049129704
0.004959378
0.0050152777
0.0050793693
0.0051499931
0.0052252642
0.0049129793
0.0049200528
0.0049361398
0.0049615425
0.0049967495
0.0050417881
0.0050959697
0.0051580501
0.0052264623
0.0052994021
0.0049986931
0.005005568
0.0050211522
0.0050456534
0.0050794613
0.0051226
0.005174483
0.0052339237
0.0052994239
0.0053693224
0.0050844986
0.0050911484
0.0051061814
0.0051297443
0.00516218
0.0052035422
0.0052533732
0.005310634
0.0053740176
0.0054421698
0.0051704369
0.0051768982
0.0051914784
0.0052143001
0.005245709
0.0052857994
0.0053342262
0.0053901546
0.0054524793
0.005519992
0.0052568199
0.0052631197
0.0052773325
0.005299575
0.0053302162
0.0053693747
0.0054167962
0.0054718269
0.0055334494
0.0056005215
0.005343917
0.0053501192
0.0053641257
0.0053860161
0.005416151
0.0054546499
0.0055013287
0.0055556258
0.0056166164
0.0056831934
0.0054319306
0.0054381115
0.0054520774
0.0054737956
0.0055035853
0.0055415629
0.0055875864
0.0056411597
0.0057014485
0.005767362
0.0055214005
0.0055275745
0.0055414961
0.0055630645
0.0055925376
0.0056300301
0.0056754076
0.0057282075
0.0057876458
0.0058526835
0.0056124548
0.0056185963
0.0056324289
0.0056538177
0.0056829607
0.0057199542
0.0057646304
0.0058165456
0.0058749635
0.0059389228
0.0057050607
0.0057111616
0.0057248829
0.0057460665
0.0057748401
0.0058112596
0.0058551234
0.0059060117
0.0059632412
0.0060258943
0.0057992249
0.0058052657
0.0058188283
0.0058397225
0.0058680178
0.0059037279
0.0059466456
0.0059963606
0.0060522308
0.0061133903
0.0058948956
0.0059008456
0.0059141814
0.0059346829
0.005962374
0.0059972386
0.0060390803
0.00608748
0.0061418295
0.0062013224
0.0059921055
0.0059979256
0.0060109424
0.0060309253
0.0060578594
0.0060917228
0.0061323281
0.006179251
0.0062319142
0.0062895775
0.0060904481
0.0060960978
0.0061087077
0.0061280684
0.0061541411
0.0061868865
0.0062261177
0.0062714414
0.0063222992
0.0063779958
0.0061892573
0.0061947156
0.0062068891
0.0062256096
0.0062507959
0.006282376
0.0063201659
0.0063638122
0.0064127719
0.0064663956
0.0062882688
0.0062935358
0.0063052707
0.0063233198
0.0063475867
0.0063779614
0.006414261
0.0064561589
0.0065031567
0.0065546333
0.0063873298
0.0063924072
0.0064036944
0.0064210423
0.0064443419
0.0064734583
0.0065082129
0.0065482986
0.0065932647
0.0066425187
0.0064864738
0.0064913447
0.006502146
0.0065187283
0.006540981
0.0065687558
0.0066018796
0.00664007
0.0066829142
0.0067298685
0.0065855307
0.006590164
0.0066004155
0.0066161377
0.0066372448
0.006663584
0.0066949951
0.0067312139
0.0067718557
0.0068164267
0.0066837306
0.006688104
0.0066977726
0.0067125878
0.0067325162
0.00675741
0.0067870897
0.0068213077
0.0068597085
0.0069018382
0.0067805098
0.0067846248
0.0067937192
0.0068076518
0.0068264302
0.0068498891
0.0068778379
0.0069100396
0.0069461722
0.0069858167
0.0068757156
0.0068795811
0.0068881184
0.0069011839
0.006918794
0.0069407856
0.0069669715
0.006997126
0.0070309558
0.0070680772
0.0069691303
0.006972744
0.0069807168
0.0069928976
0.0070092954
0.0070297776
0.0070541546
0.007082223
0.007113712
0.007148271
0.007060129
0.0070634829
0.0070708795
0.007082158
0.0070973216
0.0071162818
0.007138857
0.0071648445
0.0071939865
0.00722597
0.007148129
0.0071512186
0.0071580322
0.0071684071
0.0071823512
0.0071998183
0.0072206136
0.0072445399
0.0072713561
0.0073007763
0.0072329184
0.0072357481
0.0072419858
0.007251468
0.0072642033
0.0072801579
0.0072991616
0.0073210175
0.0073455061
0.0073723601
0.0073140147
0.007316584
0.0073222457
0.007330842
0.007342373
0.0073568042
0.0073740099
0.0073937962
0.0074159634
0.0074402617
0.0073907234
0.0073930314
0.0073981162
0.0074058302
0.0074161687
0.0074290998
0.0074445396
0.0074622968
0.0074821847
0.007503973
0.0074625102
0.0074645642
0.0074690895
0.007475951
0.0074851379
0.0074966217
0.0075103359
0.0075261105
0.0075437598
0.0075630808
0.0075289118
0.0075307205
0.007534705
0.0075407428
0.0075488124
0.0075588863
0.0075708989
0.0075847208
0.0076001685
0.0076170647
0.0075893529
0.0075909202
0.0075943718
0.0075995973
0.0076065684
0.00761526
0.0076256129
0.0076375334
0.0076508478
0.0076653915
0.0076432901
0.0076446227
0.0076475567
0.0076519939
0.0076579047
0.0076652657
0.0076740237
0.0076841002
0.007695348
0.007707602
0.0076901122
0.0076912181
0.007693653
0.0076973311
0.0077022243
0.0077083071
0.0077155296
0.0077238178
0.0077330608
0.0077431043
0.0077291408
0.0077300285
0.007731983
0.0077349311
0.0077388475
0.0077437059
0.0077494609
0.0077560473
0.0077633796
0.0077713158
0.0077597723
0.0077604536
0.0077619539
0.0077642125
0.0077672079
0.007770913
0.0077752862
0.0077802685
0.0077857831
0.0077917165
0.0077814719
0.0077819589
0.0077830318
0.0077846418
0.0077867709
0.0077893906
0.0077924616
0.0077959302
0.0077997253
0.00780376
0.0077937409
0.0077940451
0.0077947153
0.0077957132
0.0077970225
0.0077986136
0.0078004507
0.0078024862
0.0078046599
0.007806904
0.0077957236
0.0077958551
0.0077961457
0.0077965681
0.0077971104
0.0077977475
0.0077984483
0.0077991716
0.007799865
0.0078004658
0.0077870005
0.0077869755
0.007786922
0.007786823
0.0077866698
0.0077864404
0.007786105
0.0077856276
0.0077849619
0.0077840509
0.0077670789
0.0077669115
0.0077665448
0.0077659713
0.0077651852
0.0077641669
0.0077628892
0.0077613212
0.0077594239
0.0077571496
0.0077355012
0.0077352065
0.0077345601
0.0077335632
0.0077322137
0.0077304923
0.0077283768
0.0077258418
0.0077228551
0.0077193777
0.0076919811
0.0076915755
0.0076906855
0.0076893201
0.0076874798
0.0076851466
0.0076823037
0.0076789304
0.0076750011
0.0076704846
0.0076363631
0.0076358641
0.0076347686
0.0076330931
0.0076308378
0.0076279887
0.0076245338
0.0076204573
0.0076157395
0.007610357
0.0075686661
0.0075680922
0.0075668322
0.0075649079
0.0075623178
0.0075590549
0.0075551108
0.0075504744
0.0075451323
0.0075390681
0.007489163
0.0074885336
0.0074871508
0.0074850374
0.0074821968
0.0074786265
0.0074743218
0.0074692764
0.0074634828
0.0074569322
0.0073984193
0.0073977518
0.0073962849
0.0073940461
0.0073910429
0.0073872763
0.0073827455
0.0073774495
0.0073713871
0.0073645569
0.0072972932
0.0072966077
0.0072951023
0.0072928089
0.0072897385
0.0072858955
0.0072812838
0.0072759079
0.0072697729
0.007262885
0.0071870007
0.0071863213
0.0071848304
0.0071825625
0.007179531
0.0071757441
0.0071712104
0.0071659398
0.0071599441
0.0071532368
0.007069198
0.0070685508
0.0070671313
0.0070649743
0.0070620956
0.0070585069
0.0070542211
0.0070492537
0.0070436229
0.0070373505
0.0069460237
0.0069454355
0.0069441461
0.0069421894
0.0069395829
0.0069363416
0.0069324829
0.0069280278
0.0069230008
0.0069174349
0.0068201485
0.0068196472
0.0068185494
0.0068168861
0.0068146764
0.0068119383
0.0068086935
0.0068049679
0.0068007919
0.0067962107
0.0066947876
0.0066944016
0.0066935578
0.0066922828
0.0066905963
0.0066885192
0.0066860764
0.0066832985
0.0066802218
0.0066768996
0.0065736725
0.0065734294
0.0065729002
0.0065721052
0.0065710642
0.0065697999
0.00656834
0.0065667182
0.0065649759
0.0065631673
0.0064609889
0.0064609136
0.0064607536
0.0064605208
0.0064602342
0.006459917
0.0064595984
0.0064593131
0.0064591045
0.006459023
0.0063611949
0.0063613065
0.0063615574
0.0063619492
0.0063624988
0.0063632284
0.0063641663
0.0063653463
0.0063668081
0.0063685961
0.0062787149
0.0062790228
0.0062797051
0.0062807515
0.0062821751
0.0062839952
0.0062862364
0.0062889283
0.006292104
0.0062957978
0.0062175009
0.006218001
0.0062191049
0.0062207897
0.0062230631
0.0062259388
0.0062294352
0.0062335739
0.0062383785
0.0062438703
0.0061804652
0.0061811359
0.0061826134
0.0061848623
0.0061878831
0.0061916819
0.0061962676
0.0062016508
0.0062078426
0.0062148514
0.0061688703
0.0061696707
0.0061714316
0.0061741062
0.006177687
0.0061821708
0.006187555
0.0061938362
0.0062010094
0.0062090674
0.0061818499
0.0061827212
0.0061846359
0.0061875385
0.0061914137
0.0061962482
0.006202027
0.0062087321
0.0062163417
0.0062248292
0.0062162692
0.0062171397
0.0062190504
0.0062219418
0.0062257914
0.0062305765
0.006236271
0.0062428433
0.0062502562
0.0062584659
0.0062670523
0.0062678458
0.0062695857
0.0062722133
0.0062757009
0.0062800191
0.0062851326
0.0062909996
0.0062975712
0.0063047911
0.0063279614
0.0063286077
0.0063300227
0.0063321539
0.0063349717
0.0063384424
0.0063425258
0.0063471741
0.0063523322
0.0063579369
0.0063926091
0.0063930524
0.0063940204
0.0063954715
0.0063973772
0.0063997034
0.0064024088
0.006405445
0.0064087558
0.0064122783
0.0064554153
0.0064556189
0.0064560604
0.0064567127
0.0064575509
0.006458544
0.0064596539
0.0064608361
0.0064620394
0.0064632066
0.0065122665
0.0065122145
0.0065120948
0.0065118973
0.0065116035
0.0065111879
0.0065106192
0.0065098606
0.0065088701
0.0065076012
0.0065607295
0.0065604239
0.006559748
0.0065587098
0.0065572982
0.0065554956
0.0065532798
0.0065506243
0.0065474992
0.0065438718
0.006599858
0.0065993149
0.0065981186
0.0065962946
0.00659384
0.0065907459
0.0065869998
0.0065825873
0.0065774916
0.0065716951
0.0066298447
0.0066290886
0.0066274258
0.0066248979
0.0066215104
0.0066172631
0.006612154
0.0066061803
0.0065993388
0.0065916269
0.0066516031
0.0066506622
0.0066485947
0.0066454571
0.0066412624
0.0066360189
0.0066297345
0.0066224178
0.0066140785
0.006604728
0.0066663981
0.0066653009
0.0066628919
0.0066592398
0.0066543648
0.0066482831
0.0066410114
0.0066325688
0.006622977
0.0066122602
0.0066755777
0.0066743514
0.0066716601
0.0066675831
0.006662147
0.0066553747
0.0066472912
0.0066379248
0.0066273075
0.0066154749
0.0066804072
0.0066790761
0.0066761556
0.0066717342
0.0066658435
0.0066585126
0.0066497735
0.0066396625
0.0066282205
0.0066154933
0.0066819834
0.0066805685
0.0066774651
0.0066727687
0.0066665156
0.0066587401
0.00664948
0.0066387785
0.0066266844
0.0066132516
0.0066812055
0.0066797247
0.0066764773
0.0066715648
0.0066650274
0.0066569033
0.0066472358
0.0066360737
0.0066234722
0.0066094921
0.0066787791
0.0066772472
0.0066738884
0.0066688089
0.0066620518
0.0066536593
0.0066436785
0.0066321631
0.0066191737
0.0066047769
0.0066752403
0.0066736696
0.0066702262
0.0066650198
0.0066580964
0.0066495008
0.0066392837
0.006627503
0.0066142232
0.006599516
0.0066709819
0.0066693824
0.0066658761
0.0066605758
0.0066535294
0.0066447841
0.0066343935
0.0066224185
0.0066089274
0.0065939954
0.0066662843
0.006664664
0.0066611128
0.0066557452
0.0066486109
0.0066397592
0.0066292458
0.0066171341
0.0066034953
0.0065884076
0.0066613392
0.0066597048
0.0066561228
0.0066507095
0.0066435158
0.0066345924
0.0066239969
0.0066117948
0.0065980593
0.0065828712
0.0066562766
0.0066546334
0.0066510322
0.0066455905
0.0066383602
0.0066293931
0.0066187482
0.0066064926
0.0065927012
0.0065774566
0.0066511776
0.0066495297
0.0066459187
0.0066404625
0.0066332139
0.0066242255
0.0066135574
0.0066012778
0.0065874629
0.0065721968
0.0066460885
0.0066444395
0.006640826
0.0066353666
0.0066281144
0.0066191228
0.0066084526
0.0065961728
0.0065823607
0.0065671011
0.0066410387
0.0066393911
0.0066357811
0.0066303272
0.0066230829
0.0066141021
0.006603446
0.0065911842
0.0065773948
0.006562163
0.0066360337
0.0066343898
0.0066307879
0.0066253464
0.0066181192
0.0066091604
0.0065985314
0.0065863025
0.0065725517
0.006557365
0.0066310874
0.0066294492
0.0066258594
0.0066204355
0.0066132312
0.0066043012
0.0065937076
0.0065815208
0.0065678192
0.0065526888
0.0066261802
0.0066245487
0.0066209734
0.0066155715
0.0066083961
0.0065995011
0.0065889492
0.0065768115
0.0065631668
0.0065481011
0.0066213078
0.0066196839
0.0066161256
0.0066107495
0.0066036075
0.0065947532
0.0065842485
0.006572165
0.0065585822
0.0065435863
0.0066164152
0.0066148004
0.006611262
0.0066059158
0.0065988137
0.0065900078
0.006579559
0.0065675382
0.0065540251
0.0065391063
0.0066114874
0.0066098822
0.0066063649
0.0066010507
0.0065939911
0.0065852381
0.0065748512
0.0065628992
0.0065494621
0.0065346263
0.0066065046
0.0066049096
0.0066014146
0.006596134
0.0065891192
0.0065804218
0.0065701002
0.0065582229
0.0065448671
0.0065301202
0.0066014489
0.0065998646
0.006596393
0.0065911477
0.0065841798
0.0065755403
0.0065652875
0.0065534876
0.0065402175
0.0065255637
0.0065963091
0.0065947358
0.0065912883
0.0065860795
0.0065791599
0.0065705802
0.0065603983
0.0065486795
0.0065354999
0.0065209423
0.0065910761
0.0065895142
0.0065860913
0.0065809198
0.0065740496
0.0065655311
0.0065554216
0.0065437861
0.0065306971
0.0065162386
0.0065857433
0.0065841928
0.0065807949
0.006575661
0.0065688408
0.006560384
0.0065503475
0.0065387955
0.0065257999
0.0065114432
0.0065803006
0.0065787615
0.0065753886
0.0065702925
0.0065635222
0.0065551274
0.006545164
0.006533696
0.0065207946
0.0065065391
0.0065747444
0.0065732169
0.0065698693
0.0065648113
0.0065580917
0.0065497592
0.0065398695
0.0065284857
0.0065156782
0.0065015241
0.0065690651
0.0065675491
0.0065642267
0.0065592067
0.0065525372
0.0065442668
0.0065344504
0.0065231502
0.0065104363
0.0064963848
0.006563262
0.0065617574
0.0065584601
0.0065534777
0.0065468582
0.0065386494
0.0065289057
0.0065176889
0.006505068
0.0064911186
0.0065573339
0.0065558407
0.0065525682
0.0065476234
0.0065410534
0.0065329058
0.0065232342
0.0065120996
0.0064995704
0.0064857212
0.0065512726
0.0065497906
0.0065465426
0.0065416347
0.0065351136
0.0065270262
0.0065174257
0.0065063723
0.0064939336
0.0064801834
0.0065450796
0.0065436087
0.0065403849
0.0065355134
0.0065290406
0.0065210127
0.0065114824
0.0065005093
0.0064881602
0.006474508
0.0065387544
0.0065372945
0.0065340948
0.0065292596
0.0065228347
0.006514866
0.0065054053
0.0064945115
0.0064822506
0.0064686947
0.0065322945
0.0065308453
0.0065276691
0.0065228693
0.0065164913
0.0065085803
0.0064991877
0.0064883717
0.0064761973
0.0064627357
0.0065257018
0.0065242632
0.00652111
0.0065163449
0.0065100128
0.0065021584
0.0064928324
0.0064820926
0.0064700029
0.006456634
0.0065189747
0.0065175466
0.0065144164
0.0065096859
0.0065033996
0.0064956017
0.0064863423
0.0064756784
0.0064636732
0.0064503963
0.0065121188
0.006510701
0.0065075933
0.0065028967
0.0064966552
0.0064889125
0.0064797181
0.0064691283
0.0064572056
0.0064440186
0.0065051314
0.0065037237
0.0065006381
0.0064959747
0.0064897771
0.0064820885
0.0064729578
0.0064624405
0.0064505984
0.0064374992
0.0064980157
0.0064966179
0.006493554
0.0064889233
0.0064827689
0.0064751334
0.0064660654
0.0064556196
0.0064438571
0.0064308447
0.0064907738
0.0064893859
0.0064863436
0.0064817455
0.006475634
0.0064680515
0.0064590458
0.006448671
0.0064369874
0.0064240609
0.0064834099
0.0064820317
0.0064790106
0.0064744442
0.0064683748
0.0064608441
0.0064518993
0.0064415939
0.0064299874
0.0064171448
0.0064759227
0.0064745539
0.0064715532
0.0064670178
0.0064609892
0.0064535088
0.0064446232
0.0064343853
0.0064228538
0.006410093
0.0064683033
0.0064669439
0.0064639637
0.0064594591
0.0064534713
0.0064460411
0.0064372146
0.006427044
0.0064155874
0.0064029082
0.0064605616
0.0064592115
0.0064562518
0.006451778
0.0064458308
0.0064384506
0.0064296829
0.0064195791
0.0064081967
0.0063955979
0.0064527107
0.0064513698
0.00644843
0.0064439861
0.0064380784
0.0064307466
0.0064220357
0.0064119964
0.0064006854
0.0063881642
0.0064447494
0.0064434171
0.0064404962
0.0064360808
0.0064302106
0.006422925
0.0064142685
0.0064042913
0.0063930492
0.006380603
0.0064366676
0.0064353439
0.0064324418
0.0064280545
0.0064222216
0.0064149819
0.0064063792
0.0063964631
0.0063852887
0.0063729159
0.0064284756
0.0064271602
0.0064242763
0.0064199166
0.0064141198
0.0064069246
0.0063983741
0.0063885173
0.0063774085
0.0063651073
0.0064201684
0.0064188612
0.0064159953
0.0064116625
0.0064059015
0.0063987502
0.0063902513
0.0063804532
0.0063694095
0.0063571789
0.0064117538
0.0064104548
0.0064076066
0.0064033005
0.0063975746
0.0063904662
0.0063820176
0.0063722765
0.0063612957
0.0063491332
0.0064032383
0.006401947
0.0063991155
0.0063948344
0.0063891415
0.0063820739
0.0063736731
0.0063639865
0.0063530663
0.0063409696
0.0063946136
0.0063933299
0.006390515
0.006386259
0.0063805992
0.0063735721
0.0063652189
0.0063555861
0.0063447253
0.0063326927
0.0063858946
0.0063846183
0.0063818195
0.0063775875
0.0063719593
0.006364971
0.0063566632
0.0063470819
0.0063362781
0.0063243074
0.0063770742
0.0063758054
0.006373022
0.0063688132
0.0063632157
0.0063562652
0.006348002
0.0063384714
0.0063277238
0.0063158142
0.0063681595
0.0063668977
0.00636413
0.0063599441
0.0063543767
0.0063474632
0.0063392434
0.0063297619
0.0063190687
0.0063072177
0.0063591551
0.0063578999
0.0063551473
0.0063509835
0.0063454449
0.0063385666
0.006330388
0.0063209533
0.006310312
0.0062985175
0.0063500465
0.0063487981
0.0063460605
0.0063419191
0.00633641
0.0063295676
0.0063214308
0.0063120435
0.0063014542
0.006289716
0.0063408492
0.0063396072
0.0063368836
0.0063327639
0.0063272832
0.0063204757
0.0063123798
0.0063030385
0.0062925001
0.0062808167
0.0063315689
0.006330333
0.0063276225
0.0063235235
0.0063180699
0.0063112957
0.0063032389
0.0062939424
0.0062834535
0.0062718241
0.0063221886
0.0063209591
0.0063182627
0.0063141852
0.0063087597
0.00630202
0.0062940035
0.0062847523
0.0062743133
0.0062627376
0.0063127297
0.0063115067
0.0063088243
0.0063047676
0.0062993697
0.0062926637
0.0062846863
0.0062754792
0.0062650884
0.0062535645
0.0063032019
0.0063019847
0.0062993151
0.0062952774
0.0062899048
0.0062832299
0.0062752891
0.0062661234
0.0062557782
0.0062443036
0.0062935994
0.0062923877
0.0062897301
0.0062857103
0.0062803617
0.0062737164
0.0062658104
0.0062566841
0.0062463828
0.0062349555
0.0062839221
0.0062827158
0.00628007
0.0062760678
0.0062707428
0.0062641266
0.0062562547
0.0062471672
0.0062369087
0.006225528
0.0062741474
0.0062729465
0.0062703124
0.006266328
0.0062610268
0.0062544397
0.0062466018
0.0062375529
0.0062273369
0.0062160019
0.0062643002
0.006263105
0.0062604834
0.0062565178
0.0062512413
0.0062446845
0.0062368821
0.0062278733
0.0062177014
0.006206414
0.0062543505
0.0062531613
0.0062505527
0.0062466068
0.0062413559
0.0062348306
0.0062270651
0.006218098
0.0062079721
0.0061967341
0.0062443023
0.0062431185
0.0062405217
0.0062365934
0.0062313655
0.0062248682
0.0062171357
0.0062082057
0.0061981208
0.0061869272
0.0062341541
0.0062329756
0.0062303905
0.0062264796
0.0062212747
0.0062148058
0.0062071065
0.0061982145
0.0061881716
0.0061770235
0.0062239155
0.0062227424
0.0062201689
0.0062162755
0.0062110935
0.0062046529
0.006196987
0.0061881327
0.0061781316
0.0061670288
0.0062135991
0.0062124314
0.0062098698
0.0062059943
0.0062008358
0.0061944243
0.0061867923
0.0061779765
0.0061680179
0.0061569609
0.0062032072
0.006202045
0.0061994952
0.0061956375
0.0061905026
0.0061841199
0.0061765216
0.006167744
0.0061578271
0.0061468153
0.0061927481
0.0061915911
0.0061890528
0.0061852122
0.0061801
0.0061737453
0.0061661799
0.0061574397
0.0061475645
0.006136598
0.0061822144
0.0061810627
0.0061785358
0.0061747127
0.0061696233
0.0061632967
0.0061557644
0.0061470619
0.0061372289
0.0061263085
0.0061716066
0.0061704604
0.0061679459
0.006164141
0.0061590758
0.0061527785
0.0061452805
0.0061366171
0.0061268274
0.0061159539
0.0061609326
0.0061597922
0.0061572901
0.0061535039
0.0061484631
0.0061421957
0.0061347327
0.0061261089
0.0061163627
0.0061055363
0.0061502019
0.0061490671
0.0061465774
0.0061428098
0.0061377934
0.0061315558
0.0061241276
0.0061155431
0.0061058401
0.0060950601
0.0061394215
0.0061382923
0.0061358148
0.0061320654
0.006127073
0.0061208647
0.0061134705
0.0061049243
0.0060952632
0.006084528
0.0061285992
0.0061274755
0.0061250096
0.0061212777
0.0061163082
0.0061101277
0.0061027659
0.0060942559
0.0060846341
0.0060739405
0.0061177446
0.0061166256
0.0061141702
0.0061104539
0.0061055047
0.0060993488
0.0060920154
0.0060835369
0.0060739496
0.0060632933
0.006106846
0.0061057309
0.0061032839
0.0060995803
0.0060946481
0.0060885131
0.0060812046
0.006072755
0.0060632003
0.0060525801
0.0060958639
0.0060947528
0.0060923147
0.0060886246
0.0060837103
0.0060775978
0.0060703163
0.0060618979
0.0060523788
0.0060417981
0.0060847889
0.0060836828
0.0060812555
0.0060775818
0.0060726891
0.0060666031
0.0060593526
0.0060509695
0.0060414894
0.0060309511
0.0060736428
0.0060725421
0.0060701265
0.0060664702
0.0060616004
0.0060555426
0.0060483249
0.006039979
0.0060305398
0.0060200455
0.0060624422
0.006061347
0.0060589434
0.006055305
0.0060504589
0.0060444299
0.0060372458
0.0060289378
0.0060195402
0.0060090906
0.006051202
0.0060501123
0.0060477207
0.0060441004
0.0060392779
0.0060332778
0.0060261273
0.0060178569
0.0060085005
0.0059980948
0.0060399367
0.0060388524
0.0060364725
0.0060328698
0.0060280702
0.0060220981
0.00601498
0.0060067457
0.0059974284
0.005987064
0.0060286599
0.0060275806
0.0060252117
0.0060216253
0.0060168469
0.0060109003
0.0060038114
0.0059956092
0.0059863262
0.0059759976
0.0060173805
0.0060163051
0.0060139447
0.0060103709
0.006005609
0.0059996822
0.0059926163
0.0059844403
0.0059751862
0.0059648894
0.0060060616
0.0060049894
0.0060026362
0.0059990732
0.0059943258
0.0059884173
0.0059813734
0.0059732231
0.0059639985
0.0059537349
0.0059946722
0.0059936039
0.0059912594
0.0059877096
0.0059829799
0.0059770935
0.0059700758
0.0059619556
0.0059527644
0.005942537
0.0059832341
0.0059821704
0.0059798358
0.005976301
0.0059715909
0.0059657283
0.0059587384
0.0059506491
0.0059414915
0.0059312995
0.0059717713
0.0059707121
0.005968387
0.0059648664
0.0059601747
0.0059543342
0.0059473695
0.0059393081
0.0059301806
0.0059200208
0.0059602816
0.0059592259