/*--------------------------------*- C++ -*----------------------------------*\
  =========                 |
  \\      /  F ield         | OpenFOAM: The Open Source CFD Toolbox
   \\    /   O peration     | Website:  https://openfoam.org
    \\  /    A nd           | Version:  7
     \\/     M anipulation  |
\*---------------------------------------------------------------------------*/
FoamFile
{
    version     2.0;
    format      ascii;
    class       volScalarField;
    location    "80000";
    object      p;
}
// * * * * * * * * * * * * * * * * * * * * * * * * * * * * * * * * * * * * * //

dimensions      [1 -1 -2 0 0 0 0];

internalField   nonuniform List<scalar> 
87000
(
101224.14
101155.03
101117.37
101077.13
101050.96
101044.62
101046.63
101075.58
101191.16
101282.87
101203.71
101200.25
101207.73
101215.89
101226.34
101239.66
101252.97
101260.8
101281.82
101293.64
101261.43
101258.78
101262.35
101266.9
101272.93
101280.36
101288.15
101291.17
101296.08
101294.87
101279.52
101278.35
101280.55
101283.18
101286.53
101290.42
101294.46
101295.81
101297.75
101295.82
101290.56
101289.65
101290.96
101292.52
101294.5
101296.78
101298.76
101298.88
101298.66
101295.92
101295.6
101294.88
101295.71
101296.67
101297.92
101299.28
101300.26
101300.09
101298.92
101296.13
101297.66
101297.02
101297.58
101298.13
101299.04
101299.75
101300.16
101299.88
101298.64
101296.23
101298.44
101297.86
101298.24
101298.63
101299.16
101299.49
101299.23
101299.31
101298.22
101296.2
101299.01
101298.49
101298.75
101299.18
101299.45
101299.67
101299.26
101299.17
101297.98
101296.17
101299.29
101298.83
101299.06
101299.43
101299.63
101299.81
101299.7
101299.13
101297.89
101296.25
101299.09
101298.63
101298.97
101299.1
101299.19
101299.17
101299.02
101298.55
101297.53
101296.14
101298.92
101298.39
101298.85
101298.87
101298.95
101298.84
101298.66
101298.2
101297.27
101296.04
101298.26
101297.66
101298.09
101298.1
101298.04
101297.36
101297.88
101297.61
101296.85
101295.8
101298.51
101298.07
101298.32
101298.33
101298.29
101297.65
101297.99
101297.51
101296.7
101295.71
101298.94
101298.75
101298.81
101298.84
101298.84
101298.71
101298.28
101297.57
101296.7
101295.71
101298.31
101298.23
101298.23
101298.23
101298.1
101297.92
101297.63
101297.1
101296.36
101295.51
101297.83
101297.75
101297.81
101297.83
101297.69
101297.51
101297.27
101296.79
101296.11
101295.34
101297.41
101297.3
101297.4
101297.43
101297.29
101297.15
101296.93
101296.5
101295.88
101295.15
101297.18
101297.07
101297.14
101297.12
101296.99
101296.89
101296.69
101296.26
101295.7
101295
101296.34
101296.22
101296.27
101296.04
101295.11
101296
101296.04
101295.75
101295.3
101294.72
101296.82
101296.76
101296.86
101296.7
101295.8
101296.44
101296.14
101295.71
101295.19
101294.61
101297.88
101297.65
101297.75
101297.73
101297.57
101297.12
101296.5
101295.92
101295.3
101294.64
101297.32
101296.89
101296.94
101296.77
101296.57
101296.35
101295.99
101295.54
101295.03
101294.44
101296.92
101296.47
101296.54
101296.36
101296.16
101295.99
101295.67
101295.25
101294.78
101294.24
101296.73
101296.26
101296.34
101296.15
101295.94
101295.77
101295.47
101295.07
101294.59
101294.09
101296.57
101296.08
101296.15
101295.96
101295.77
101295.6
101295.3
101294.93
101294.47
101293.98
101296.41
101295.92
101295.99
101295.79
101295.58
101295.41
101295.11
101294.74
101294.32
101293.85
101296.26
101295.76
101295.81
101295.61
101295.4
101295.23
101294.93
101294.57
101294.19
101293.74
101296.14
101295.62
101295.64
101295.47
101295.26
101295.09
101294.8
101294.47
101294.06
101293.64
101296.09
101295.53
101295.57
101295.39
101295.17
101295
101294.71
101294.38
101293.97
101293.57
101295.96
101295.43
101295.47
101295.28
101295.06
101294.9
101294.63
101294.28
101293.9
101293.5
101295.83
101295.33
101295.37
101295.17
101294.94
101294.77
101294.5
101294.17
101293.83
101293.44
101295.77
101295.28
101295.3
101295.11
101294.88
101294.7
101294.44
101294.14
101293.79
101293.42
101295.72
101295.26
101295.3
101295.11
101294.87
101294.72
101294.46
101294.14
101293.78
101293.41
101295.65
101295.23
101295.27
101295.07
101294.82
101294.68
101294.42
101294.1
101293.77
101293.42
101295.62
101295.22
101295.25
101295.05
101294.79
101294.64
101294.39
101294.1
101293.79
101293.46
101295.71
101295.29
101295.32
101295.11
101294.88
101294.72
101294.47
101294.19
101293.88
101293.53
101295.81
101295.36
101295.39
101295.18
101294.95
101294.82
101294.57
101294.27
101293.96
101293.62
101295.86
101295.4
101295.43
101295.25
101294.97
101294.83
101294.59
101294.32
101294.02
101293.72
101295.94
101295.51
101295.56
101295.37
101295.11
101294.95
101294.71
101294.44
101294.17
101293.86
101296.15
101295.76
101295.79
101295.55
101295.31
101295.19
101294.94
101294.67
101294.37
101294.06
101296.34
101295.92
101295.93
101295.73
101295.45
101295.33
101295.11
101294.85
101294.56
101294.26
101296.64
101296.23
101296.25
101296.06
101295.8
101295.64
101295.4
101295.13
101294.84
101294.54
101296.82
101296.44
101296.43
101296.23
101296
101295.85
101295.6
101295.34
101295.06
101294.77
101298.29
101297.9
101297.9
101298.02
101299.38
101297.3
101296.63
101296.19
101295.76
101295.36
101297.52
101297.13
101297.09
101297.09
101298.4
101296.48
101296.29
101296.09
101295.8
101295.51
101296.25
101295.83
101295.76
101295.5
101295.29
101295.38
101295.69
101295.71
101295.62
101295.48
101297.68
101297.27
101297.3
101297.29
101297.03
101296.8
101296.74
101296.54
101296.32
101296.09
101298.37
101297.99
101298.03
101298
101297.75
101297.47
101297.36
101297.13
101296.88
101296.63
101298.79
101298.45
101298.48
101298.48
101298.2
101297.91
101297.79
101297.57
101297.33
101297.09
101300.09
101299.81
101299.87
101299.86
101299.87
101301.33
101299.31
101298.68
101298.3
101297.92
101299.88
101299.66
101299.68
101299.59
101299.53
101300.87
101298.9
101298.7
101298.53
101298.27
101299.19
101298.92
101298.89
101298.77
101298.44
101298.19
101298.21
101298.49
101298.48
101298.38
101300.56
101300.29
101300.32
101300.28
101300.17
101299.92
101299.72
101299.61
101299.42
101299.21
101302.13
101301.9
101301.96
101301.95
101301.95
101301.95
101303.38
101301.43
101300.82
101300.46
101302.13
101301.9
101301.95
101301.84
101301.76
101301.69
101302.95
101301.03
101300.84
101300.68
101302.38
101302.15
101302.21
101302.08
101302.02
101301.72
101301.68
101303.28
101301.76
101301.37
101303.33
101303.08
101303.15
101303.05
101303.04
101302.83
101302.82
101304.04
101302.17
101302.01
101303.45
101303.19
101303.22
101303.09
101303.02
101302.82
101302.49
101302.2
101302.58
101302.33
101305.19
101304.94
101304.98
101304.94
101304.94
101304.94
101304.76
101304.71
101306.03
101304.25
101306.17
101305.93
101305.98
101305.94
101305.9
101305.96
101305.82
101305.77
101306.78
101306.98
101306.66
101306.41
101306.44
101306.37
101306.27
101306.26
101306.09
101305.82
101305.77
101307.16
101307.54
101307.26
101307.32
101307.28
101307.18
101307.18
101307.09
101306.9
101306.64
101306.57
101308.23
101307.93
101308.04
101308.03
101307.92
101307.89
101307.87
101307.75
101307.61
101307.43
101309.11
101308.82
101308.93
101308.96
101308.86
101308.82
101308.9
101308.88
101308.83
101308.8
101309.49
101309.19
101309.26
101309.25
101309.15
101309.06
101309.07
101308.98
101308.83
101308.7
101309.49
101309.19
101309.23
101309.16
101309.02
101308.86
101308.72
101308.57
101308.32
101308
101311.05
101310.72
101310.78
101310.75
101310.69
101310.57
101310.46
101310.46
101310.35
101310.2
101312.05
101311.6
101311.8
101311.78
101311.76
101311.63
101311.52
101311.47
101311.4
101311.29
101313.41
101312.85
101313.15
101313.13
101313.11
101313
101312.91
101312.83
101312.82
101312.73
101314.77
101314.18
101314.43
101314.4
101314.35
101314.27
101314.19
101314.1
101314.05
101313.99
101316.08
101315.46
101315.66
101315.66
101315.61
101315.58
101315.47
101315.38
101315.29
101315.26
101317.31
101316.73
101316.89
101316.9
101316.86
101316.84
101316.72
101316.62
101316.53
101316.46
101318.53
101317.99
101318.13
101318.13
101318.08
101318.04
101317.94
101317.85
101317.75
101317.65
101319.74
101319.23
101319.36
101319.36
101319.31
101319.25
101319.2
101319.09
101318.99
101318.89
101320.95
101320.47
101320.59
101320.58
101320.52
101320.46
101320.44
101320.31
101320.22
101320.12
101322.14
101321.66
101321.69
101321.76
101321.72
101321.67
101321.63
101321.55
101321.45
101321.35
101323.37
101322.89
101322.82
101322.96
101322.95
101322.91
101322.84
101322.81
101322.69
101322.59
101324.65
101324.19
101324.12
101324.23
101324.23
101324.17
101324.1
101324.06
101323.97
101323.86
101325.9
101325.46
101325.41
101325.5
101325.49
101325.42
101325.36
101325.3
101325.24
101325.12
101327.15
101326.78
101326.69
101326.77
101326.74
101326.67
101326.62
101326.55
101326.5
101326.41
101328.38
101328.06
101327.96
101327.99
101327.96
101327.92
101327.87
101327.8
101327.74
101327.69
101329.58
101329.27
101329.17
101329.11
101329.15
101329.16
101329.1
101329.04
101328.97
101328.92
101330.84
101330.53
101330.45
101330.33
101330.44
101330.43
101330.36
101330.31
101330.24
101330.17
101332.09
101331.78
101331.72
101331.62
101331.7
101331.66
101331.61
101331.55
101331.48
101331.41
101333.31
101332.99
101332.96
101332.88
101332.93
101332.86
101332.84
101332.77
101332.72
101332.64
101334.5
101334.18
101334.16
101334.09
101334.04
101334.06
101334.05
101333.99
101333.93
101333.86
101335.68
101335.37
101335.4
101335.3
101335.18
101335.27
101335.23
101335.18
101335.12
101335.07
101336.88
101336.57
101336.64
101336.52
101336.42
101336.48
101336.41
101336.38
101336.32
101336.26
101338.01
101337.7
101337.77
101337.67
101337.59
101337.59
101337.56
101337.54
101337.48
101337.41
101339.13
101338.82
101338.88
101338.81
101338.73
101338.66
101338.7
101338.65
101338.61
101338.55
101340.24
101339.93
101340
101339.94
101339.87
101339.78
101339.83
101339.77
101339.74
101339.68
101341.32
101341.01
101341.07
101341.03
101340.97
101340.89
101340.89
101340.86
101340.81
101340.77
101342.36
101342.05
101342.11
101342.1
101342.03
101341.96
101341.9
101341.91
101341.86
101341.83
101343.37
101343.07
101343.13
101343.13
101343.06
101343
101342.93
101342.96
101342.9
101342.85
101344.34
101344.04
101344.1
101344.1
101344.05
101344
101343.94
101343.92
101343.88
101343.83
101345.27
101344.98
101345.03
101345.03
101344.99
101344.95
101344.89
101344.83
101344.84
101344.79
101346.18
101345.89
101345.95
101345.95
101345.91
101345.88
101345.83
101345.77
101345.77
101345.72
101347.01
101346.73
101346.79
101346.79
101346.76
101346.73
101346.69
101346.64
101346.61
101346.58
101347.85
101347.57
101347.63
101347.63
101347.62
101347.59
101347.55
101347.5
101347.45
101347.43
101348.57
101348.31
101348.36
101348.36
101348.35
101348.32
101348.29
101348.25
101348.2
101348.2
101349.33
101349.07
101349.12
101349.12
101349.11
101349.09
101349.06
101349.03
101348.99
101348.96
101349.98
101349.73
101349.78
101349.78
101349.77
101349.76
101349.73
101349.71
101349.67
101349.63
101350.61
101350.37
101350.41
101350.42
101350.41
101350.4
101350.38
101350.36
101350.33
101350.28
101351.18
101350.95
101350.99
101351
101351
101350.99
101350.97
101350.95
101350.92
101350.89
101351.71
101351.49
101351.53
101351.54
101351.55
101351.53
101351.52
101351.5
101351.48
101351.45
101352.19
101351.98
101352.02
101352.03
101352.04
101352.03
101352.01
101352
101351.98
101351.95
101352.63
101352.43
101352.48
101352.49
101352.49
101352.48
101352.47
101352.45
101352.44
101352.42
101353.03
101352.85
101352.89
101352.91
101352.9
101352.89
101352.88
101352.87
101352.85
101352.83
101353.4
101353.23
101353.27
101353.27
101353.26
101353.26
101353.25
101353.24
101353.23
101353.21
101353.73
101353.56
101353.6
101353.6
101353.59
101353.59
101353.58
101353.57
101353.56
101353.54
101354.01
101353.86
101353.89
101353.89
101353.89
101353.88
101353.88
101353.87
101353.86
101353.84
101354.26
101354.12
101354.15
101354.15
101354.15
101354.15
101354.14
101354.14
101354.13
101354.1
101354.49
101354.36
101354.38
101354.39
101354.38
101354.38
101354.38
101354.37
101354.36
101354.34
101354.68
101354.57
101354.59
101354.6
101354.59
101354.59
101354.59
101354.58
101354.57
101354.55
101354.86
101354.76
101354.78
101354.78
101354.78
101354.77
101354.77
101354.77
101354.75
101354.74
101355.02
101354.92
101354.94
101354.95
101354.94
101354.94
101354.94
101354.93
101354.92
101354.91
101355.16
101355.07
101355.09
101355.09
101355.09
101355.09
101355.09
101355.08
101355.07
101355.07
101355.28
101355.21
101355.23
101355.23
101355.23
101355.22
101355.22
101355.22
101355.21
101355.21
101355.4
101355.34
101355.35
101355.35
101355.35
101355.35
101355.35
101355.34
101355.34
101355.34
101355.51
101355.46
101355.47
101355.47
101355.47
101355.46
101355.46
101355.46
101355.46
101355.46
101355.61
101355.57
101355.58
101355.58
101355.58
101355.58
101355.57
101355.57
101355.57
101355.57
101355.71
101355.68
101355.68
101355.68
101355.68
101355.68
101355.68
101355.68
101355.68
101355.68
101355.81
101355.78
101355.79
101355.79
101355.79
101355.79
101355.79
101355.79
101355.79
101355.78
101355.91
101355.89
101355.9
101355.9
101355.9
101355.9
101355.9
101355.89
101355.89
101355.89
101356.02
101356
101356.01
101356.01
101356.01
101356.01
101356.01
101356
101356
101356
101356.12
101356.12
101356.12
101356.12
101356.12
101356.12
101356.12
101356.12
101356.12
101356.12
101356.23
101356.23
101356.23
101356.23
101356.23
101356.23
101356.23
101356.23
101356.23
101356.23
101356.34
101356.35
101356.35
101356.35
101356.35
101356.35
101356.35
101356.34
101356.34
101356.34
101356.46
101356.46
101356.46
101356.46
101356.46
101356.46
101356.46
101356.46
101356.46
101356.46
101356.56
101356.58
101356.57
101356.57
101356.57
101356.57
101356.57
101356.57
101356.57
101356.57
101356.67
101356.69
101356.68
101356.68
101356.68
101356.68
101356.68
101356.68
101356.68
101356.68
101356.77
101356.79
101356.79
101356.79
101356.79
101356.79
101356.79
101356.79
101356.79
101356.79
101356.87
101356.89
101356.89
101356.89
101356.89
101356.89
101356.89
101356.89
101356.89
101356.89
101356.96
101356.99
101356.98
101356.98
101356.98
101356.98
101356.98
101356.98
101356.98
101356.98
101357.05
101357.08
101357.07
101357.07
101357.07
101357.07
101357.07
101357.07
101357.07
101357.07
101357.13
101357.16
101357.15
101357.15
101357.15
101357.15
101357.15
101357.15
101357.15
101357.15
101357.21
101357.24
101357.23
101357.23
101357.23
101357.23
101357.23
101357.23
101357.23
101357.23
101357.27
101357.3
101357.3
101357.29
101357.29
101357.29
101357.29
101357.29
101357.29
101357.29
101357.33
101357.36
101357.36
101357.35
101357.35
101357.35
101357.35
101357.35
101357.35
101357.35
101357.38
101357.41
101357.4
101357.4
101357.4
101357.4
101357.4
101357.4
101357.4
101357.4
101357.42
101357.46
101357.45
101357.45
101357.45
101357.45
101357.45
101357.45
101357.45
101357.45
101357.45
101357.49
101357.48
101357.48
101357.48
101357.48
101357.48
101357.48
101357.48
101357.48
101357.48
101357.52
101357.51
101357.51
101357.51
101357.51
101357.51
101357.51
101357.51
101357.51
101357.49
101357.53
101357.52
101357.52
101357.52
101357.52
101357.52
101357.52
101357.52
101357.52
101357.5
101357.54
101357.53
101357.53
101357.53
101357.53
101357.53
101357.53
101357.53
101357.53
101357.49
101357.53
101357.52
101357.52
101357.52
101357.52
101357.52
101357.52
101357.52
101357.52
101357.49
101357.53
101357.52
101357.52
101357.52
101357.52
101357.52
101357.52
101357.52
101357.52
101357.46
101357.49
101357.49
101357.48
101357.48
101357.48
101357.48
101357.48
101357.48
101357.48
101357.44
101357.47
101357.47
101357.47
101357.47
101357.47
101357.47
101357.47
101357.47
101357.47
101357.38
101357.42
101357.41
101357.41
101357.42
101357.42
101357.42
101357.42
101357.42
101357.42
101357.34
101357.38
101357.37
101357.37
101357.38
101357.38
101357.38
101357.38
101357.38
101357.38
101357.28
101357.31
101357.31
101357.3
101357.3
101357.31
101357.32
101357.32
101357.31
101357.31
101357.22
101357.26
101357.25
101357.25
101357.25
101357.25
101357.26
101357.26
101357.26
101357.26
101357.15
101357.18
101357.17
101357.17
101357.17
101357.17
101357.17
101357.18
101357.18
101357.18
101357.07
101357.11
101357.1
101357.1
101357.1
101357.1
101357.1
101357.1
101357.11
101357.11
101356.98
101357.02
101357.01
101357.01
101357.01
101357.01
101357.01
101357.01
101357.02
101357.02
101356.89
101356.93
101356.92
101356.92
101356.92
101356.92
101356.92
101356.92
101356.92
101356.93
101356.79
101356.83
101356.82
101356.82
101356.82
101356.82
101356.81
101356.81
101356.81
101356.82
101356.69
101356.72
101356.71
101356.71
101356.71
101356.71
101356.71
101356.71
101356.71
101356.71
101356.57
101356.6
101356.6
101356.59
101356.59
101356.59
101356.59
101356.59
101356.59
101356.59
101356.45
101356.48
101356.48
101356.47
101356.47
101356.47
101356.47
101356.47
101356.47
101356.47
101356.32
101356.36
101356.35
101356.35
101356.35
101356.35
101356.35
101356.34
101356.34
101356.34
101356.19
101356.22
101356.22
101356.21
101356.21
101356.21
101356.21
101356.21
101356.21
101356.21
101356.05
101356.08
101356.08
101356.07
101356.07
101356.07
101356.07
101356.07
101356.07
101356.07
101355.91
101355.94
101355.93
101355.93
101355.93
101355.93
101355.93
101355.93
101355.93
101355.92
101355.76
101355.79
101355.78
101355.78
101355.78
101355.78
101355.78
101355.78
101355.78
101355.77
101355.6
101355.63
101355.63
101355.63
101355.62
101355.62
101355.62
101355.62
101355.62
101355.62
101355.44
101355.47
101355.47
101355.47
101355.47
101355.46
101355.46
101355.46
101355.46
101355.46
101355.28
101355.31
101355.3
101355.3
101355.3
101355.3
101355.3
101355.3
101355.3
101355.3
101355.11
101355.14
101355.13
101355.13
101355.13
101355.13
101355.13
101355.13
101355.13
101355.13
101354.94
101354.97
101354.96
101354.96
101354.96
101354.96
101354.96
101354.96
101354.95
101354.95
101354.76
101354.79
101354.78
101354.78
101354.78
101354.78
101354.78
101354.78
101354.78
101354.78
101354.58
101354.61
101354.6
101354.6
101354.6
101354.6
101354.6
101354.6
101354.6
101354.59
101354.4
101354.42
101354.42
101354.41
101354.41
101354.41
101354.41
101354.41
101354.41
101354.41
101354.21
101354.23
101354.23
101354.22
101354.22
101354.22
101354.22
101354.22
101354.22
101354.22
101354.01
101354.04
101354.03
101354.03
101354.03
101354.03
101354.03
101354.03
101354.03
101354.03
101353.82
101353.84
101353.84
101353.83
101353.83
101353.83
101353.83
101353.83
101353.83
101353.83
101353.62
101353.64
101353.64
101353.63
101353.63
101353.63
101353.63
101353.63
101353.63
101353.63
101353.41
101353.44
101353.43
101353.43
101353.43
101353.43
101353.43
101353.43
101353.42
101353.42
101353.21
101353.23
101353.22
101353.22
101353.22
101353.22
101353.22
101353.22
101353.22
101353.22
101352.99
101353.02
101353.01
101353.01
101353.01
101353.01
101353.01
101353.01
101353.01
101353.01
101352.78
101352.8
101352.8
101352.8
101352.8
101352.8
101352.79
101352.79
101352.79
101352.79
101352.56
101352.59
101352.58
101352.58
101352.58
101352.58
101352.58
101352.58
101352.58
101352.57
101352.34
101352.37
101352.36
101352.36
101352.36
101352.36
101352.36
101352.36
101352.36
101352.36
101352.12
101352.14
101352.14
101352.14
101352.14
101352.14
101352.14
101352.14
101352.13
101352.13
101351.9
101351.92
101351.91
101351.91
101351.91
101351.91
101351.91
101351.91
101351.91
101351.91
101351.67
101351.69
101351.69
101351.69
101351.69
101351.69
101351.68
101351.68
101351.68
101351.68
101351.44
101351.46
101351.46
101351.46
101351.46
101351.45
101351.45
101351.45
101351.45
101351.45
101351.21
101351.23
101351.23
101351.22
101351.22
101351.22
101351.22
101351.22
101351.22
101351.22
101350.97
101350.99
101350.99
101350.99
101350.99
101350.99
101350.99
101350.99
101350.99
101350.99
101350.74
101350.76
101350.76
101350.76
101350.76
101350.76
101350.76
101350.75
101350.75
101350.75
101350.5
101350.52
101350.51
101350.51
101350.51
101350.51
101350.51
101350.51
101350.51
101350.51
101350.27
101350.29
101350.28
101350.28
101350.28
101350.28
101350.28
101350.28
101350.28
101350.28
101350.02
101350.03
101350.03
101350.03
101350.03
101350.03
101350.03
101350.03
101350.03
101350.03
101349.79
101349.81
101349.8
101349.8
101349.8
101349.8
101349.8
101349.8
101349.8
101349.8
101349.52
101349.54
101349.54
101349.54
101349.54
101349.54
101349.53
101349.53
101349.53
101349.53
101349.31
101349.33
101349.32
101349.32
101349.32
101349.32
101349.32
101349.32
101349.32
101349.32
101349.02
101349.04
101349.03
101349.03
101349.03
101349.03
101349.03
101349.03
101349.03
101349.03
101348.82
101348.84
101348.83
101348.83
101348.83
101348.83
101348.83
101348.83
101348.83
101348.83
101348.52
101348.54
101348.53
101348.53
101348.53
101348.53
101348.53
101348.53
101348.53
101348.53
101348.31
101348.33
101348.32
101348.32
101348.32
101348.32
101348.32
101348.32
101348.32
101348.32
101348.03
101348.04
101348.04
101348.04
101348.04
101348.04
101348.04
101348.04
101348.03
101348.03
101347.8
101347.82
101347.81
101347.81
101347.81
101347.81
101347.81
101347.81
101347.81
101347.81
101347.53
101347.55
101347.54
101347.54
101347.54
101347.54
101347.54
101347.54
101347.54
101347.54
101347.3
101347.31
101347.31
101347.3
101347.3
101347.3
101347.3
101347.3
101347.3
101347.3
101347.04
101347.05
101347.05
101347.05
101347.04
101347.04
101347.04
101347.04
101347.04
101347.04
101346.79
101346.8
101346.8
101346.8
101346.8
101346.8
101346.8
101346.8
101346.8
101346.79
101346.53
101346.55
101346.55
101346.54
101346.54
101346.54
101346.54
101346.54
101346.54
101346.54
101346.28
101346.3
101346.29
101346.29
101346.29
101346.29
101346.29
101346.29
101346.29
101346.29
101346.03
101346.04
101346.04
101346.04
101346.04
101346.04
101346.04
101346.04
101346.04
101346.04
101345.78
101345.79
101345.79
101345.79
101345.79
101345.79
101345.79
101345.79
101345.79
101345.78
101345.53
101345.54
101345.54
101345.54
101345.53
101345.53
101345.53
101345.53
101345.53
101345.53
101345.27
101345.29
101345.28
101345.28
101345.28
101345.28
101345.28
101345.28
101345.28
101345.28
101345.02
101345.03
101345.03
101345.03
101345.03
101345.03
101345.03
101345.03
101345.03
101345.03
101344.77
101344.78
101344.78
101344.78
101344.78
101344.78
101344.78
101344.78
101344.77
101344.77
101344.52
101344.53
101344.53
101344.53
101344.52
101344.52
101344.52
101344.52
101344.52
101344.52
101344.26
101344.28
101344.27
101344.27
101344.27
101344.27
101344.27
101344.27
101344.27
101344.27
101344.01
101344.02
101344.02
101344.02
101344.02
101344.02
101344.02
101344.02
101344.02
101344.02
101343.76
101343.77
101343.77
101343.77
101343.77
101343.77
101343.77
101343.77
101343.77
101343.76
101343.51
101343.52
101343.52
101343.52
101343.52
101343.52
101343.52
101343.51
101343.51
101343.51
101343.26
101343.27
101343.27
101343.27
101343.26
101343.26
101343.26
101343.26
101343.26
101343.26
101343.01
101343.02
101343.01
101343.01
101343.01
101343.01
101343.01
101343.01
101343.01
101343.01
101342.76
101342.77
101342.76
101342.76
101342.76
101342.76
101342.76
101342.76
101342.76
101342.76
101342.51
101342.52
101342.51
101342.51
101342.51
101342.51
101342.51
101342.51
101342.51
101342.51
101342.26
101342.27
101342.27
101342.26
101342.26
101342.26
101342.26
101342.26
101342.26
101342.26
101342.01
101342.02
101342.02
101342.02
101342.02
101342.01
101342.01
101342.01
101342.01
101342.01
101341.76
101341.77
101341.77
101341.77
101341.77
101341.77
101341.76
101341.76
101341.76
101341.76
101341.51
101341.52
101341.52
101341.52
101341.52
101341.52
101341.52
101341.52
101341.52
101341.51
101341.26
101341.27
101341.27
101341.27
101341.27
101341.27
101341.27
101341.27
101341.27
101341.27
101341.02
101341.03
101341.02
101341.02
101341.02
101341.02
101341.02
101341.02
101341.02
101341.02
101340.77
101340.78
101340.78
101340.78
101340.78
101340.78
101340.77
101340.77
101340.77
101340.77
101340.52
101340.53
101340.53
101340.53
101340.53
101340.53
101340.53
101340.53
101340.53
101340.53
101340.28
101340.29
101340.29
101340.29
101340.28
101340.28
101340.28
101340.28
101340.28
101340.28
101340.03
101340.04
101340.04
101340.04
101340.04
101340.04
101340.04
101340.04
101340.04
101340.04
101339.79
101339.8
101339.8
101339.8
101339.8
101339.8
101339.79
101339.79
101339.79
101339.79
101339.55
101339.55
101339.55
101339.55
101339.55
101339.55
101339.55
101339.55
101339.55
101339.54
101339.3
101339.31
101339.31
101339.31
101339.31
101339.31
101339.31
101339.31
101339.3
101339.3
101339.06
101339.07
101339.07
101339.07
101339.07
101339.06
101339.06
101339.06
101339.06
101339.06
101338.82
101338.83
101338.83
101338.83
101338.83
101338.82
101338.82
101338.82
101338.82
101338.82
101338.58
101338.58
101338.58
101338.58
101338.58
101338.58
101338.58
101338.58
101338.58
101338.57
101338.34
101338.35
101338.35
101338.35
101338.34
101338.34
101338.34
101338.34
101338.34
101338.34
101338.09
101338.1
101338.1
101338.1
101338.1
101338.1
101338.09
101338.09
101338.09
101338.09
101337.87
101337.87
101337.87
101337.87
101337.87
101337.87
101337.87
101337.87
101337.86
101337.86
101337.61
101337.62
101337.61
101337.61
101337.61
101337.61
101337.61
101337.61
101337.61
101337.61
101337.4
101337.41
101337.41
101337.41
101337.41
101337.4
101337.4
101337.4
101337.4
101337.4
101337.11
101337.12
101337.12
101337.12
101337.12
101337.11
101337.11
101337.11
101337.11
101337.11
101336.95
101336.96
101336.96
101336.96
101336.96
101336.95
101336.95
101336.95
101336.95
101336.95
101336.6
101336.6
101336.6
101336.6
101336.6
101336.6
101336.6
101336.59
101336.59
101336.59
101336.52
101336.53
101336.52
101336.52
101336.52
101336.52
101336.52
101336.52
101336.52
101336.53
101336.08
101336.09
101336.09
101336.09
101336.09
101336.08
101336.08
101336.08
101336.08
101336.07
101336.01
101336.01
101336.01
101336.01
101336.01
101336.01
101336.01
101336.01
101336.01
101336.01
101335.66
101335.67
101335.66
101335.66
101335.66
101335.66
101335.66
101335.66
101335.65
101335.65
101335.5
101335.51
101335.5
101335.5
101335.5
101335.5
101335.5
101335.5
101335.49
101335.49
101335.22
101335.23
101335.22
101335.22
101335.22
101335.22
101335.22
101335.22
101335.22
101335.21
101335.02
101335.02
101335.02
101335.02
101335.02
101335.02
101335.02
101335.01
101335.01
101335.01
101334.77
101334.77
101334.77
101334.77
101334.77
101334.77
101334.77
101334.76
101334.76
101334.76
101334.54
101334.55
101334.55
101334.54
101334.54
101334.54
101334.54
101334.54
101334.54
101334.54
101334.3
101334.31
101334.31
101334.31
101334.31
101334.31
101334.31
101334.31
101334.3
101334.3
101334.08
101334.08
101334.08
101334.08
101334.08
101334.08
101334.08
101334.07
101334.07
101334.07
101333.84
101333.85
101333.84
101333.84
101333.84
101333.84
101333.84
101333.84
101333.83
101333.83
101333.61
101333.61
101333.61
101333.61
101333.61
101333.61
101333.61
101333.61
101333.61
101333.6
101333.38
101333.38
101333.38
101333.38
101333.38
101333.38
101333.38
101333.38
101333.38
101333.37
101333.14
101333.15
101333.15
101333.15
101333.15
101333.15
101333.15
101333.15
101333.15
101333.15
101332.91
101332.92
101332.92
101332.92
101332.92
101332.92
101332.92
101332.92
101332.92
101332.92
101332.69
101332.7
101332.69
101332.69
101332.69
101332.69
101332.69
101332.69
101332.69
101332.69
101332.46
101332.47
101332.46
101332.46
101332.46
101332.46
101332.46
101332.46
101332.46
101332.46
101332.23
101332.24
101332.24
101332.24
101332.24
101332.24
101332.24
101332.24
101332.24
101332.24
101332.01
101332.02
101332.02
101332.02
101332.02
101332.02
101332.02
101332.02
101332.02
101332.02
101331.79
101331.8
101331.79
101331.79
101331.79
101331.79
101331.8
101331.8
101331.8
101331.8
101331.56
101331.58
101331.57
101331.57
101331.57
101331.58
101331.58
101331.58
101331.58
101331.58
101331.34
101331.36
101331.35
101331.35
101331.36
101331.36
101331.36
101331.36
101331.36
101331.36
101331.13
101331.14
101331.14
101331.14
101331.14
101331.14
101331.14
101331.14
101331.14
101331.14
101330.91
101330.92
101330.92
101330.92
101330.92
101330.92
101330.92
101330.93
101330.93
101330.93
101330.7
101330.71
101330.71
101330.71
101330.71
101330.71
101330.71
101330.71
101330.72
101330.72
101330.49
101330.5
101330.5
101330.5
101330.5
101330.5
101330.51
101330.51
101330.51
101330.51
101330.28
101330.29
101330.29
101330.29
101330.29
101330.29
101330.29
101330.29
101330.29
101330.29
101330.06
101330.08
101330.07
101330.07
101330.07
101330.08
101330.08
101330.08
101330.08
101330.08
101329.85
101329.87
101329.86
101329.86
101329.87
101329.87
101329.87
101329.87
101329.87
101329.88
101329.65
101329.67
101329.66
101329.66
101329.66
101329.67
101329.67
101329.67
101329.67
101329.67
101329.44
101329.46
101329.46
101329.46
101329.46
101329.46
101329.46
101329.46
101329.46
101329.46
101329.23
101329.25
101329.25
101329.25
101329.25
101329.25
101329.25
101329.25
101329.25
101329.25
101329.03
101329.04
101329.04
101329.04
101329.04
101329.04
101329.05
101329.05
101329.05
101329.05
101328.83
101328.85
101328.85
101328.85
101328.85
101328.85
101328.85
101328.85
101328.85
101328.85
101328.63
101328.64
101328.64
101328.64
101328.64
101328.64
101328.64
101328.64
101328.64
101328.64
101328.43
101328.44
101328.44
101328.44
101328.44
101328.44
101328.44
101328.44
101328.44
101328.45
101328.22
101328.24
101328.24
101328.24
101328.24
101328.24
101328.24
101328.24
101328.25
101328.25
101328.04
101328.06
101328.06
101328.06
101328.06
101328.06
101328.06
101328.06
101328.06
101328.06
101327.83
101327.85
101327.84
101327.84
101327.84
101327.84
101327.84
101327.85
101327.85
101327.85
101327.67
101327.68
101327.68
101327.68
101327.68
101327.68
101327.68
101327.68
101327.68
101327.68
101327.43
101327.44
101327.44
101327.44
101327.44
101327.44
101327.45
101327.45
101327.45
101327.45
101327.33
101327.35
101327.34
101327.34
101327.34
101327.34
101327.34
101327.35
101327.35
101327.35
101327.01
101327.02
101327.02
101327.02
101327.02
101327.02
101327.02
101327.02
101327.02
101327.02
101327.06
101327.07
101327.07
101327.07
101327.07
101327.07
101327.07
101327.07
101327.07
101327.07
101326.48
101326.5
101326.5
101326.5
101326.5
101326.5
101326.5
101326.5
101326.51
101326.51
101326.98
101326.99
101326.98
101326.98
101326.98
101326.98
101326.98
101326.98
101326.98