/*--------------------------------*- C++ -*----------------------------------*\
  =========                 |
  \\      /  F ield         | OpenFOAM: The Open Source CFD Toolbox
   \\    /   O peration     | Website:  https://openfoam.org
    \\  /    A nd           | Version:  7
     \\/     M anipulation  |
\*---------------------------------------------------------------------------*/
FoamFile
{
    version     2.0;
    format      ascii;
    class       volScalarField;
    location    "80000";
    object      Qrad;
}
// * * * * * * * * * * * * * * * * * * * * * * * * * * * * * * * * * * * * * //

dimensions      [1 -1 -3 0 0 0 0];

internalField   nonuniform List<scalar> 
87000
(
5055.0387
5055.0669
5055.1396
5055.2915
5055.6214
5056.4478
5059.1527
5071.8027
5233.2384
9271.0974
5056.2785
5056.4202
5056.9595
5058.112
5060.6542
5066.891
5084.1894
5160.9734
5650.3962
12031.208
5059.462
5059.9565
5061.7207
5065.4558
5073.3595
5090.774
5138.3316
5341.397
6303.9463
14646.298
5065.795
5067.1364
5071.2963
5079.7078
5096.1451
5134.4318
5247.7986
5622.826
7154.8643
17080.691
5076.6196
5079.5894
5087.3653
5101.9925
5133.6121
5205.4757
5407.4376
5937.7437
8135.9737
19063.894
5093.5322
5098.7218
5110.9298
5136.1285
5185.5315
5314.8545
5622.2422
6383.2728
9177.7259
20587.911
5118.2256
5125.6445
5143.8583
5182.2915
5265.3362
5454.9465
5886.1589
6899.0759
10233.72
21815.601
5151.7214
5160.6962
5188.2817
5239.7092
5371.1946
5628.7288
6193.7826
7470.6997
11279.991
22865.02
5195.0771
5207.0986
5243.7623
5324.0501
5498.3074
5838.8067
6449.9402
8082.7817
12298.286
23784.332
5248.9397
5265.3909
5309.674
5430.7305
5650.7355
6080.2557
6826.272
8723.1505
13277.913
24582.873
5313.4891
5335.5118
5394.8439
5553.5288
5826.9616
6345.5115
7236.7167
9384.7106
14223.683
25314.934
5393.3614
5417.0388
5507.9468
5696.5525
6030.9774
6642.0659
7677.5868
10061.604
15137.818
26010.48
5488.294
5509.9171
5637.8251
5860.5646
6261.36
6964.9287
8147.2226
10753.298
16029.304
26699.276
5598.3794
5615.2239
5783.7303
6046.5054
6515.2319
7167.9533
8640.8015
11454.677
16898.107
27370.096
5722.4957
5755.4853
5948.2156
6254.235
6788.6509
7529.9323
9155.4573
12159.863
17741.823
28017.303
5861.1396
5920.1313
6133.7622
6487.1635
7085.5995
7916.8964
9691.4972
12871.673
18568.035
28652.824
6015.5012
6108.9738
6340.6576
6744.5858
7410.1516
8328.5123
10247.508
13589.989
19389.932
29282.384
6185.4528
6308.9383
6570.4756
7027.3095
7758.9987
8764.6777
10823.421
14315.661
20200.657
29919.373
6373.7457
6532.4522
6822.6353
7333.5839
8132.5591
9225.6009
11419.464
15049.963
21003.545
30572.367
6580.8511
6776.8409
7097.982
7660.4838
8531.4089
9713.1502
12037.126
15797.314
21807.927
31237.623
6807.259
7046.2449
7403.433
8014.3275
8689.0446
10223.421
12674.738
16554.607
22622.557
31909.663
7053.024
7342.9266
7736.8633
8394.2661
9119.5468
10756.127
13327.857
17318.808
23429.076
32579.655
7351.5546
7668.6051
8099.563
8803.5719
9576.8107
11314.012
13999.698
18092.776
24233.687
33254.433
7684.3789
8023.5154
8493.2153
9245.6735
10061.238
11896.59
14691.48
18882.124
25042.46
33938.242
8050.6717
8410.4904
8919.6619
9719.3681
10574.324
12505.808
15404.077
19683.811
25868.876
34649.155
8452.7403
8831.6982
9380.8066
10225.712
11116.838
13141.758
16139.436
20496.67
26703.828
35374.942
8892.8192
9289.2675
9878.9888
10767.405
11689.397
13805.531
16897.342
21321.768
27546.869
36113.814
9373.0827
9785.7746
10415.229
11345.19
12293.452
14498.053
17678.862
22174.314
28399.329
36867.515
9896.1642
10322.732
10989.654
11962.537
12930.435
15220.076
18487.311
23043.636
29266.879
37636.794
10466.508
10903.83
11602.625
12619.989
13601.216
15972.743
19321.881
23929.731
30160.359
38421.918
11088.094
11526.93
12260.518
13320.861
14306.916
16757.019
20179.301
24834.005
31070.496
39230.218
11751.339
12198.447
12965.378
14067.008
15049.052
17573.919
21061.417
25773.386
31997.476
40069.773
12460.71
12919.907
13720.234
14861.299
15829.261
18428.232
21983.928
26732.52
32941.39
40930.612
13221.664
13693.725
14527.656
15706.026
16648.641
19317.594
22932.842
27712.249
33914.696
41815.784
14025.936
14521.676
15390.164
16603.431
17508.208
20239.329
23908.995
28717.395
34917.67
42729.973
14871.873
15406.008
16310.786
17556.55
18413.258
21199.937
24921.778
29766.255
35941.969
43667.606
15776.607
16349.779
17292.688
18567.971
19359.83
22205.119
25973.903
30839.845
36989.588
44633.757
16755.548
17357.171
18338.602
19643.936
20346.771
23246.186
27058.018
31939.228
38062.693
45632.644
17813.011
18431.896
19453.725
20782.118
21386.021
24326.801
28174.151
33070.261
39177.925
46662.327
18941.782
19582.346
20643.069
21981.431
22472.877
25462.204
29343.891
34250.198
40321.513
47726.963
20141.943
20811.88
21900.884
23258.656
23603.216
26636.672
30548.961
35462.213
41499.918
48824.965
21409.783
22112.821
23238.51
24606.141
24792.648
27850.606
31789.36
36705.284
42712.072
49951.607
22748.717
23499.11
24657.218
26021.505
26033.902
29127.81
33078.16
37984.483
43961.103
51115.505
24169.211
24969.695
26129.511
27529.486
27320.716
30447.529
34417.02
39310.36
45248.89
52315.405
25658.458
26503.851
27690.067
29110.885
28668.97
31798.226
35781.466
40662.616
46557.226
53543.337
27225.527
28126.09
29322.783
30751.366
32904.157
33230.616
37188.403
42065.217
47913.392
54814.45
28874.105
29824.448
31030.813
32498.847
34664.029
34724.298
38677.835
43527.128
49319.226
56133.878
30598.452
31609.502
32845.908
34360.08
36528.901
36261.844
40215.367
45040.709
50779.71
57501.64
32427.912
33495.487
34739.455
36325.084
38478.598
37859.188
41806.444
46600.806
52285.287
58915.745
34334.327
35461.734
36721.099
38400.203
40506.193
39511.902
43448.117
48210.355
53837.74
60367.101
36305.11
37530.693
38804.268
40563.485
42637.278
41224.743
45128.156
49851.958
55416.101
61855.135
38251.8
39686.062
40956.785
42825.376
44828.185
47685.887
46895.183
51552.002
57049.412
63388.93
40260.988
41918.779
43203.731
45179.153
47119.731
49996.596
48717.769
53329.909
58751.073
64986.114
42359.778
44263.496
45549.595
47641.638
49519.505
52412.238
50595.431
55153.951
60499.013
66634.787
44524.583
46692.365
47993.06
50122.322
52058.162
54917.248
52524.981
57018.917
62280.374
68313.254
46737.051
49199.905
50529.343
52651.092
54743.09
57476.717
60988.545
58963.202
64120.266
70047.69
49015.554
51796.494
53211.73
55271.445
57516.835
60146.763
63665.217
60962.764
66018.305
71824.379
51359.137
54491.253
55995.014
57979.731
60398.211
62902.657
66382.398
70510.055
68011.807
73671.454
53767.567
57271.573
58880.323
60784.387
63368.945
65752.681
69211.756
73332.715
70052.467
75581.493
56246.444
60152.617
61817.38
63676.41
66448.548
68831.411
72142.518
76238.812
72129.739
77534.25
58782.867
63122.444
64810.542
66664.761
69432.978
72014.437
75155.009
79198.87
83896.971
79564.907
61365.042
66184.938
67892.68
69728.16
72469.807
75284.564
78242.932
82241.55
86845.925
92117.363
63992.66
69314.441
71058.1
72879.241
75585.925
78642.838
81546.997
85364.92
89917.619
95097.11
66671.789
72364.795
74311.524
76158.416
78783.525
82088.855
84983.785
88554.099
93046.666
98138.487
69386.845
75485.682
77644.586
79601.088
82062.534
85344.103
88491.708
91894.026
96260.813
101271.95
72131.874
78669.531
81029.569
83114.544
85401.699
88620.483
92081.878
95453.376
99504.187
104439.73
74901.328
81898.197
84427.711
86589.209
88792.331
91950.622
95709.16
99062.391
102920.46
107622.07
77715.591
85197.512
87896.491
90075.661
92256.227
95331.062
99021.094
102714.43
106521.7
110859.99
80565.872
88469.791
91431.757
93638.937
95896.852
98793.578
102380.84
106431.55
110183.58
114423.53
83469.524
90934.213
95022.455
97264.103
99667.216
102308.8
105828.07
109890.51
113901.68
118087.32
86456.02
93479.708
98699.053
100954.99
103444.41
105909.31
109329.21
113307.26
117684.93
121795.51
89826.625
96091.573
102365.95
104684.27
107146.52
109605.23
112917.23
116783.25
121179.69
125577.97
93258.418
98785.945
105832.82
108408.78
110917.68
113542.69
116560.06
120344.73
124614.77
129388.82
96725.391
101535.47
109370.97
112224.76
114753.34
117538.18
120288.33
123957.54
128136.53
132767.39
100248.09
104355.58
112970.23
116092.25
118666.97
121444.92
124137.45
127661.69
131705.22
136223.64
103814.68
107242.48
116653.2
120042.12
122636.11
125342.49
128232.41
131410.57
135358.66
139753.67
107425.88
110187.76
120385.79
124051.6
126579.54
129312.76
132371.3
135242.7
139081.67
143355.64
111092.39
113201.11
122994.03
127991.9
130562.56
133342.64
136367.62
139376.78
142876.15
147028.53
114792.75
116247.18
125389.01
131670.39
134624.25
137448.98
140382.16
143599.22
146741.4
150772.97
118544.11
119362.44
127891.85
135431.75
138757.51
141561.31
144466.52
147755.1
150926.83
154591.55
122342.36
122592.99
130497.69
139270.25
142962.09
145663.87
148624.55
151811.01
155208.34
158531.76
126187.89
126476.77
133209.95
143187.5
147238.12
149841.8
152856.7
155942.2
159422.62
162806.57
130082.08
130402.58
136024.64
146715.19
151019.57
154097.23
157064.25
160151.54
163521.95
167152.1
134025.97
134372.18
138926.05
148831.41
154890.85
158432.26
161290.95
164441.56
167708.88
171345.73
138020.16
138386.63
141923.05
151108.54
158858.39
162849.29
165603.71
168772.85
171982.4
175509.63
142066.97
142449.06
145032.6
153557.45
162924.82
166951.33
170005.87
173057.35
176358.45
179774.9
146169.87
146563.58
148259.29
156175.9
166997.01
170907.82
174514.12
177468.61
180789.68
184107.48
150333.32
150735.25
151604.53
158946.98
168981.39
175016.11
179118.42
181944.9
185137.7
188545.07
154561.17
154968.2
155842.91
161874.38
171174.79
179195.04
183244.76
186518.81
189595.76
193028.36
158861.35
159269.59
160146.84
164969.41
173594.75
183496.25
187341.41
191204.26
194175.48
197490.45
163240.05
163649.11
164523.36
168247.25
176253.12
186429.51
191580.56
195794.58
198882.19
202083.03
167705.25
168113.63
168982.12
171716.96
179143.06
188587.25
195974.52
199989.8
203721.36
206814.4
172294.38
172701
173562.86
175372.43
182257.64
191051.3
200530.18
204360.16
208688.66
211703.53
176942.27
177342.59
178189.55
179479.39
185616.87
193820.73
203811.68
208914.19
213057.1
216753.78
181690.73
182087.31
182925.11
184199.48
189228.98
196886.73
206234.27
213667.67
217639.14
221979.02
186569.31
186961.86
187790.11
189048.48
193105.09
200274.67
209052.86
218635.48
222446.58
226706.23
191595.68
191984.22
192803.06
194046.04
197271.65
204006.97
212260.44
222026.89
227498.72
231605.26
196790.18
197174.89
197984.82
199213.49
201741.32
208089.95
215868.22
225098.41
232816.52
236783.13
202176.87
202558.17
203360.18
204576.34
206541.17
212549.9
219910.09
228671.89
238422.89
242262.98
207784.7
208163.14
208958.96
210165.32
211791.47
217425.9
224422.73
232757.64
242432.35
248077.82
213646.99
214023.62
214815.35
216015.34
217632.31
222744.42
229424.62
237382.71
246647.37
254256.93
219802.04
220177.92
220967.68
222164.52
223776.83
228543.33
234957.11
242598.45
251521.06
260840.27
226296.68
226673.18
227463.88
228662.12
230276.19
234889.06
241084.68
248465.04
257093.56
266971.12
233184.25
233562.89
234357.74
235562.25
237184.85
241840.02
247862.11
255031.88
263414.27
273031.15
240526.88
240909.35
241711.92
242928.2
244655.82
249471.3
255361.76
262368.83
270561.31
279980.7
248396.71
248784.93
249599.27
250833.71
253130.44
257876.01
263669.05
270560.52
278618.56
287897.95
256876.54
257272.68
258103.28
259365.33
262447.45
267147.17
272880.55
279701.41
287677.53
296874.26
266066.56
266474.73
267330.62
269018.11
272712.24
277393.61
283103.24
289896.16
297840.05
307018.73
276081.3
276502.6
277593.31
280340.25
284043.22
288732.72
294452.36
301258.37
309235.28
318430.12
287349
288236.13
290064.94
292833.74
296563.3
301286.64
307060.14
313930.55
321964.67
331217.28
301069.64
301969.29
303825.34
306634.36
310418.56
315211.05
321056.13
328009.1
336137.16
345491.64
316224.78
317139.82
319026.22
321881.52
325727.86
330598.98
336538.1
343608
351881.74
361378.45
332892.11
333824.94
335748.51
338664.5
342596.29
347573.74
353640.47
360851.21
369268.6
378325.72
351204.26
352159.38
354129.2
357110.18
361124.08
366203.42
372391.06
379754.91
388338.67
395452.23
371171.78
372149.62
374166.58
377218.24
381325.75
386521.02
392846.58
400353.24
409067.22
414049.75
392809.18
393805.68
395860.66
398969.51
403154.42
408456.77
414906.05
422545.67
430221.99
434213.3
416037.71
417053.62
419148.5
422315.71
426573.94
431951.33
438484.63
446204.53
451917.49
455984.77
440525.85
441552.98
443670.28
446869.78
451168.22
456591.23
463173.55
470932.12
475115.72
479259.88
465982.28
467011.69
469132.92
472337.12
476638.29
482058.53
488625.45
496029.05
499751.04
503951.04
491937.63
492958.49
495060.52
498233.04
502487.81
507843.15
514322.73
521904.61
525653.05
529880.24
517819.7
518819.23
520875.89
523977.87
528134.25
533359.59
539673.64
547089.66
552569.29
556786.59
543004.11
543967.86
545949.05
548935.24
552933.51
557956.14
564016.02
571130.33
579313.25
584217.54
566951.93
567871.73
569761.56
572608.5
576417.13
581195.51
586954.21
593706
601465.62
610248.61
589209.34
590072.81
591844.85
594528.29
598116.26
602614.68
608031.43
614376.02
621659.47
629894.16
609523.75
610331.35
611987.87
614481.43
617814.15
622008.86
627067.6
632989.22
639782.49
647457.35
627832.91
628584.61
630126.18
632446.52
635547.29
639432.22
644106.33
649590.45
655908.51
663044.26
644259.8
644958.92
646392.95
648551.53
651436.27
655050.67
659399.48
664488.55
670324.8
676916.25
659037.96
659684.66
661016.89
663032.09
665725.6
669100.91
673162.75
677916.99
683370.63
689531.75
672705.15
673238.07
674400.05
676277.35
678786.51
681930.71
685718.78
690152.46
695238.38
701023.59
686956.93
687465.34
688513.99
690094.62
692209.27
694861.95
698058.04
701804.55
706412.9
711835.54
700103.48
700587.02
701584.17
703087.23
705098.44
707622
710663.56
714230.12
718329.56
722971.14
712241.2
712702.76
713655.37
715093.27
717017.38
719431.81
722342.01
725758.22
729730.48
734230.48
723608.28
724052.01
724967.26
726347.04
728213.44
730560.52
733390.15
736714.03
740540.55
744876.05
734411.42
734845.65
735742.25
737094.19
738903.67
741174.79
743913.01
747125.05
750818.81
755004.42
744723.19
745145.35
746017.23
747331.95
749091.64
751300.32
753963.34
757087.24
760679.75
764750.83
754613.06
755023.79
755872.41
757152.13
758864.99
761014.88
763614.88
766667
770176.91
774154.37
764126.65
764529.18
765361.11
766615.68
768294.88
770402.47
772943.52
775924.16
779352.3
783254.23
773290.4
773686.42
774505.15
775739.84
777392.42
779466.55
781967.16
784900.24
788272.83
792094.2
782121.51
782510.51
783319.06
784538.59
786170.8
788219.27
790688.76
793585.11
796915.13
800687.88
790774.23
791152.99
791935.81
793116.13
794695.56
796677.34
799106.05
801975.2
805273.64
809010.22
799164.77
799540.45
800317.15
801488.25
803055.29
805021.38
807390.72
810168.41
813379.45
817045.04
807265.67
807639.33
808412.11
809577.32
811136.41
813092.43
815449.44
818212.43
821387.18
824990.23
815053.76
815426.4
816197.36
817359.85
818915.29
820866.63
823217.86
825973.85
829140.27
832724.87
822690.3
823055.78
823811.22
824950.02
826473.39
828383.99
830685.43
833415.3
836581.53
840165.77
830137
830502.99
831259.8
832400.69
833927.22
835842.25
838148.96
840851.69
843955.45
847467.25
837245.61
837612.31
838371.03
839514.87
841044.9
842963.66
845280
847995.57
851113.93
854642.06
844332.02
844692.26
845436.95
846559.34
848060.32
849942.13
852207.83
854869.57
857931.85
861439.6
851169.33
851531.73
852281.37
853411.32
854922.47
856817.06
859098.15
861769.5
864850.52
868345.83
857814.65
858171.15
858907.94
860018.29
861502.91
863363.74
865603.49
868261.8
871356.67
874885.73
864409.29
864769.3
865514.1
866636.92
868138.45
870020.68
872286.36
874938.89
877982.15
881426.31
867529.46
868772.37
871304.69
872914.43
874392.06
876243.97
878486.39
881176.58
884263.49
887753.06
868792.49
870076.4
872691.09
876638.2
880812.37
882695.12
884960.63
887612.01
890652.83
894088.46
869675.46
870985.97
873653.25
877677.85
883083.62
888702.19
890934.94
893576.49
896676.09
900178.57
870584.05
871928.57
874663.72
878789.36
884328.86
891311.96
897218.95
899887.34
902945.12
906398.41
871361.44
872731.96
875516.51
879697.23
885302.34
892368.64
900927.68
905726.51
908741.86
912179.55
871970.73
873370.89
876215.73
880496.44
886206.68
893388.98
902089.8
911642.16
914705.32
918159.37
872755.8
874179.44
877071.79
881423.06
887244.08
894512.8
903310.29
913668.85
920632.06
924113.33
873670.55
875106.97
878023.93
882411.21
888291.69
895677.5
904553.35
915009.16
926503.25
930015.87
874756.57
876211.15
879165.07
883607.15
889546.38
896995.78
905897.07
916369.92
928503.27
935859.77
875957.4
877428.29
880415.6
884907.12
890910.79
898438.26
907455.22
917959.24
930074.55
941655.26
877266.41
878752.13
881769.99
886306.74
892369.23
899967.78
909114.46
919657.5
931808.33
945584.64
878838.56
880327.14
883349.72
887892.68
893962.1
901568.31
910788.46
921438.1
933604.6
947399.37
880643.97
882143.61
885189.31
889766.37
895879.75
903537.22
912747.59
923435.95
935511.42
949260.18
882550.39
884060.06
887126.91
891735.02
897888.09
905592.25
914854.56
925679.41
937741.95
951422.7
884752.09
886258.43
889317.57
893913.34
900048.71
907728.89
917003.55
927877.4
940027.59
953676.3
887206.74
888719.67
891793.19
896409.84
902571.27
910280.89
919542.27
930357.24
942504.32
956000.49
889707.42
891226.55
894313.77
898950.18
905135.88
912872.28
922160.52
932999.86
945255.57
958706.64
892724.01
894233.57
897300.56
901905.95
908049.26
915731.09
924951.57
935709.24
948000.24
961411.56
895781.65
897294.55
900369.68
904986.48
911142.87
918837.4
928067.64
938829.18
951112.48
964438.37
899182.6
900682.66
903731.03
908307.1
914408.34
922032.61
931176.78
941908.95
954193.93
967600.86
902817.73
904319.04
907371.62
911953.33
918060.05
925687.7
934830.65
945480.65
957624.7
970968.2
906665.35
908151.08
911171.39
915704.22
921745.07
929289.38
938399.74
949053.94
961194.06
974620.85
910890.99
912376.98
915399.87
919936.06
925979.62
933524.11
942561.03
953078.77
965061.38
978403.81
915253.85
916722.17
919708.62
924189.73
930159.3
937610.61
946650.18
957177.11
969163.41
982589.57
920072.01
921541.02
924531.36
929018.14
934993.97
942450.61
951377.34
961760.02
973580.24
986818.95
925022.73
926472.84
929424.27
933852.33
939749.42
947107.03
955967.98
966331.07
978124.59
991328.22
930246.92
931693.92
934641.1
939062.77
944950.57
952295.06
961087.67
971394.36
983121.53
996248.49
935882.47
937321.6
940254.19
944654.05
950512.44
957819.48
966562.68
976797.02
988524.65
1001651.5
941955.42
943393.89
946327.74
950729.99
956591.64
963902.57
972650.01
982817.53
994384.26
1007329.4
948317.4
949737.37
952633.13
956977.99
962762.81
969977.35
978608.6
988640.02
1000074.5
1013120.6
954665.89
956094.77
959012.69
963391.84
969222.97
976495.86
985197.7
995312.24
1006819
1019697.2
961852.96
963264.73
966147.39
970473.4
976233.4
983417.08
992011.46
1002000.1
1013362.4
1026077.7
968821.33
970216.51
973064.95
977339.38
983051.79
990315.47
999007.27
1009111.5
1020608.5
1033478.3
976607.19
978016.22
980897.36
985222.22
990981.52
998165.17
1006760.6
1016751.9
1028119.4
1040843.1
984471.87
985866.04
988716.43
992994.92
998692.13
1005797.9
1014299.5
1024181.3
1035680.3
1048597.5
992500.42
993912.26
996803.53
1001144.8
1006926.8
1014139.7
1022771.5
1032807.2
1044228.1
1057015.2
1001339.1
1002737.6
1005601.3
1009901.1
1015627.5
1022770.7
1031318.6
1041256.2
1052564.6
1065225.1
1008630.1
1011340.5
1014177.5
1018436.8
1024109.1
1031225
1039924.6
1050040
1061553.1
1074445.8
1015048.6
1020718.6
1023605.6
1027941.2
1033716
1040920.3
1049542.1
1059566.7
1070976.2
1083752.6
1022175.3
1027887.6
1033237
1037535
1043259.2
1050400.1
1058945.9
1068881.9
1080190.5
1092968.8
1029444.6
1034891.3
1042651.4
1046971
1052810.8
1060095.6
1068812.8
1078947.5
1090481.7
1103397.8
1038260
1043473.4
1053351.8
1057697.9
1063485.8
1070706
1079346.1
1089391.5
1100824.5
1113628
1047378.6
1052327.9
1062395.9
1068214.4
1073952.1
1081109.3
1089674.3
1099632.7
1110967.6
1124132.6
1056587.9
1061297.6
1070981.6
1078868.2
1084819.3
1092238.9
1101113.2
1111425.2
1123155.3
1136284.9
1068404.9
1072889.1
1082025
1091431.3
1097318.8
1104659.5
1113440.7
1123646.1
1135257.4
1148257
1080356.2
1084576.4
1093180.3
1103800.9
1109626.3
1116890.1
1125580.3
1135681.8
1147177.1
1160049.9
1092375.9
1096339.6
1104426.8
1115977.9
1121742.5
1128931.1
1137532.6
1147532.6
1158914.7
1171663.7
1104445.8
1108160.7
1115746.3
1127166.5
1133669.5
1140785.5
1149300.8
1159202.3
1170474.5
1183103.6
1116550.9
1120023.9
1127121.7
1137815.7
1145407.5
1152452.3
1160883.3
1170688.4
1181853.3
1194403.4
1128676.3
1131914.7
1138539.8
1148530.6
1156995.5
1164463.2
1173381.6
1183729
1195480.9
1208614.4
1143377.1
1146478.4
1152844.8
1162459.2
1171879.1
1179221
1187991.4
1198170.8
1209736.9
1222669.3
1159046.5
1161927.3
1167850.2
1176805.9
1186605.9
1193823.6
1202448.2
1212462.1
1223845
1236579.1
1174722.7
1177387.9
1182877.2
1191189.2
1201173.7
1208269
1216749.9
1226600.6
1237803
1250341.6
1190397.5
1192852.3
1197918.7
1205603
1215585.7
1222561
1230901.1
1240592
1251617.6
1263964.9
1206060.8
1208310.3
1212964.1
1220036.2
1229610.7
1236699.2
1244901.3
1254435.5
1265287.8
1277447.5
1221704.4
1223753.7
1228005.2
1234480.3
1243272.2
1250684.9
1258752.1
1268132.8
1278815.3
1291275.6
1237319.9
1239173.8
1243032.9
1248926.1
1257333.5
1265420.5
1273944.3
1283824.2
1295034.2
1307550.3
1255177.4
1256974.6
1260743.9
1266533.8
1274475.6
1282614.9
1290925.4
1300562
1311501.7
1323723.5
1273491.4
1275171.3
1278702.1
1284131.3
1291586.7
1299694
1307794
1317190.7
1327863.9
1339795.6
1291740
1293305.3
1296603.4
1301680.7
1308662
1316657.2
1324549.6
1333710
1344120.5
1355766.1
1309919.2
1311372.8
1314443.8
1319178
1325697
1333503.9
1341191.9
1350119.3
1360270.9
1371634.6
1328025.4
1329369.9
1332219.4
1336618.9
1342687.5
1350233.7
1357720.4
1366418.3
1376314.9
1387400.7
1346055.1
1347293.2
1349926.6
1353999.8
1359629.3
1366846.2
1374134.5
1382606.4
1392251.8
1403063.6
1364005.2
1365139.5
1367562.1
1371317.2
1376518.6
1383323.8
1390433.6
1398762.8
1408785.7
1419994.7
1382167
1383261.8
1385623
1389310.9
1394463.3
1401263.4
1408739.5
1417295.7
1427021.6
1437899.4
1401764.2
1402818
1405092.7
1408642.1
1413593.6
1420116.6
1427443.6
1435741.3
1445174.3
1455725.7
1421262.4
1422276.3
1424467.1
1427882.2
1432639
1438893.5
1446057.2
1454099.9
1463243.9
1473473.5
1440660.5
1441635.8
1443745.1
1447030
1451598.1
1457592.7
1464579.6
1472370.8
1481230.2
1491142.7
1459957.5
1460895.3
1462925.7
1466084.4
1470469.7
1476212.6
1483010.6
1490553.9
1499132.7
1508732.9
1479152.8
1480054.4
1482008.2
1485044.6
1489252.8
1494752
1501349.8
1508648.9
1516951.2
1526243.9
1498245.9
1499112.3
1500992
1503909.8
1507946.5
1513209.7
1519597.1
1526655.5
1534685.5
1543675.3
1517236.5
1518068.8
1519876.5
1522679.4
1526549.9
1531584.4
1537752
1544573.1
1552334.6
1561177.3
1536124.1
1536923.2
1538661.2
1541352.5
1545064.3
1550050.5
1556210.9
1563045.2
1570815.8
1579503
1555564.7
1556364.1
1558106.4
1560802.4
1564513.2
1569320.6
1575287.1
1581884.5
1589381.4
1597757.2
1575210.9
1575985.5
1577675.1
1580286
1583872.2
1588505.9
1594271.1
1600642.6
1607870.3
1615940
1594758.7
1595509.2
1597147.5
1599675.8
1603140.9
1607606.1
1613143.8
1619319.5
1626282.3
1634051
1614208
1614935.1
1616523.5
1618971.4
1622318.8
1626620.3
1631937.3
1637924.8
1644710.5
1652247.4
1633612.9
1634331.4
1635901.8
1638314.7
1641600.7
1645802.3
1650968.1
1656802.7
1663289.6
1670484.6
1653383.7
1654073.3
1655583.2
1657901.2
1661052.7
1665073.4
1670003.6
1675604
1681797
1688656.1
1673061.2
1673722.4
1675173.2
1677398.3
1680418.2
1684262.3
1688962.6
1694328.7
1700232.7
1706761.6
1692645.2
1693278.7
1694671.6
1696805.8
1699697.2
1703368.6
1707844.8
1712976.6
1718596.4
1724800.7
1712136
1712742.2
1714078.5
1716123.7
1718889.4
1722392.3
1726649.6
1731573
1736900.6
1742714.5
1731658
1732246.7
1733545.9
1735526.3
1738188.1
1741534.1
1745565.2
1750185.4
1755152.6
1760556.4
1751404.5
1751954.5
1753174
1755032.3
1757526
1760654
1764412
1768728.7
1773341
1778341.3
1771063.5
1771575.4
1772716.6
1774454.7
1776783.4
1779697.4
1783187.5
1787202.5
1791465.5
1796068.7
1790635.1
1791109.4
1792173.6
1793793.5
1795960
1798663.9
1801891.2
1805606.7
1809525.7
1813738.4
1810119.4
1810556.8
1811545.2
1813048.9
1815056.1
1817553.7
1820523.3
1823916.3
1827406.1
1831041.4
1829588.3
1829995.8
1830920.9
1832318.8
1834164.4
1836427.6
1839070.2
1842042.7
1845083.5
1848196.4
1849251.5
1849605.4
1850421.4
1851654.1
1853276.5
1855256.5
1857552.9
1860113.2
1862709
1865307.1
1868833.5
1869134.5
1869842.9
1870912.6
1872315.2
1874016.2
1875971.9
1878126.8
1880281.4
1882372.1
1888334.1
1888583
1889185.3
1890094.4
1891280.3
1892706.6
1894326.9
1896082.8
1897800.1
1899390.9
1907753.6
1907951.1
1908448.8
1909199.7
1910172.1
1911327.8
1912618
1913981.9
1915205.1
1916042.7
1927092.4
1927239.3
1927633.9
1928233.1
1928988.1
1929834.1
1930698.6
1931493.7
1932054.1
1932224.1
1946534
1946617.7
1946880.5
1947265.7
1947725.6
1948201.4
1948620
1948892.5
1948868
1948379.1
1965932.8
1965945.1
1966063.1
1966230.5
1966399.2
1966510
1966488.7
1966246.1
1965643.4
1964504.3
1985257
1985198.8
1985173.9
1985126.4
1985007.9
1984758.5
1984303.5
1983553
1982378.5
1980597.7
2004506.9
2004379.2
2004213.2
2003953.6
2003551.6
2002946.8
2002063.8
2000812.3
1999072.6
1996660.3
2023683.7
2023487.2
2023182
2022713.1
2022031.5
2021076.2
2019772.1
2017862.7
2015242.1
2011722.2
2042756.5
2042481.8
2042011.7
2041281.8
2040227.4
2038767.3
2036802.3
2034214.5
2030868.3
2026542
2061653.5
2061286.9
2060631.2
2059623.3
2058199.4
2056279.2
2053764.7
2050539.7
2046470.5
2041350.7
2080478.2
2080021.5
2079183.6
2077902.9
2076116.3
2073744.5
2070690.7
2066840.2
2062061.5
2056161.7
2099235.9
2098690
2097671.5
2096120.3
2093974
2091154.1
2087565.2
2083094
2077610.8
2070934.6
2117928
2117293.9
2116097
2114278.7
2111777.1
2108514.8
2104397.3
2099313.1
2093134.8
2085694.5
2136556.7
2135835.3
2134462
2132379.5
2129526.6
2125827
2121183
2115168.1
2107868.3
2099118.1
2154924.3
2154085.9
2152467.6
2150006.8
2146632.2
2142255
2136768.3
2130048.9
2121958.8
2112351.8
2172653.6
2171710.9
2169882
2167107.3
2163317.6
2158427
2152332.1
2144914.3
2136041.6
2125584
2190331.2
2189285.6
2187248.7
2184163.5
2179963.4
2174565.3
2167870.7
2159494.3
2149362.5
2137510.8
2207722.5
2206525.4
2204171.8
2200608.3
2195768
2189568.2
2181911.5
2172687.8
2161777.6
2149078.6
2223785.8
2222482.8
2219914.9
2216032.6
2210772.4
2204055.6
2195789.8
2185870.8
2174187
2160639.3
2239803.5
2238395.8
2235615.8
2231417.8
2225741.5
2218512.4
2209643.2
2199038.9
2186051.6
2171058.7
2255777.4
2254261.4
2251120.7
2246383.1
2239994.9
2231890.8
2221996
2210230.3
2196510
2180751.1
2269660.6
2267975.9
2264634.5
2259599.3
2252820.7
2244239.1
2233591.7
2220751.9
2205880.5
2188918.9
2282726.1
2280872.6
2277194.6
2271661.3
2264235.6
2254873.3
2243525.5
2230140.6
2214651.1
2196445.1
2294387.4
2292440.2
2288589.4
2282800.2
2274902.1
2264704.4
2252411.7
2238002
2221459.1
2202765.5
2304173.7
2302060.9
2297881.4
2291609.4
2283228
2272718.3
2260061.4
2245127.4
2227492.5
2207711.5
2313041.3
2310758.9
2306232.4
2299457.8
2290434.1
2279167.7
2265669.2
2249954.7
2232046.6
2211972.3
2318872.6
2316549.5
2311940.3
2305049.4
2295873.3
2284420.9
2270444.4
2253853.2
2235057
2214114.6
2323589.4
2321130.6
2316230.8
2308921.8
2299216.1
2287146.7
2272754.6
2256088.6
2237209.3
2215607.5
2326076.9
2323609.9
2318685
2311342.3
2301592.9
2289031.8
2274014
2256694.8
2237162.6
2215505.5
2326592.2
2324030.9
2318892.3
2311239.8
2301100
2288526.1
2273582.5
2256346.4
2236484.7
2214283.6
2325817.6
2323275.9
2318166.1
2310335.5
2299864
2286904.9
2271541.9
2253872.2
2234003.5
2212045.8
2322527.5
2319928.8
2314682.4
2306867.9
2296527
2283726.8
2268549.3
2250824.8
2230618.7
2208341.8
2318560.4
2315921.2
2310573.7
2302605
2292069.2
2279044.4
2263624.2
2245916.6
2226040.4
2204123.5
2312313.1
2309726.8
2304479.1
2296650.4
2286298.5
2273499.2
2258149.3
2240059
2219789.8
2197482.1
2305135.2
2302505.2
2297149.2
2289151.9
2278583.1
2265527.5
2250086.9
2232378
2212530.9
2190681.1
2295812.8
2293241.1
2288002.1
2280177.8
2269836.7
2257060.9
2241948.5
2224612.9
2205180.4
2183782.5
2286423.8
2283909.7
2278786.3
2271132.3
2261015.5
2248515.5
2233727.8
2216762.6
2197748.3
2176016.6
2276971.7
2274514.6
2269505.7
2262020.7
2252127.8
2239415.5
2224319.7
2207015.2
2187637.3
2166326.4
2265632.9
2263136.4
2258030.9
2250399.4
2240314.6
2227859.9
2213134.9
2196256
2177353.5
2156564.3
2253079.5
2250646.6
2245669.3
2238227.9
2228394
2216248.8
2201890
2185430.8
2166998.5
2146727.1
2240478
2238108
2233257.1
2226004.2
2216418.8
2204580.8
2190585.7
2174546.1
2156204.9
2135690.2
2227833.9
2225526.4
2220801.3
2213663
2203970.7
2191999.7
2177847.1
2161626.9
2143467.1
2123502.5
2213236.6
2210913
2206141.2
2199004.4
2189570.6
2177919.9
2164147.5
2148364.3
2130695
2111271.8
2198170.7
2195911.5
2191269.2
2184326.3
2175148.8
2163815.4
2150419.1
2135068.2
2117885.1
2098999.5
2183090.2
2180894.7
2176380.6
2169630
2160706.7
2149687.9
2136665
2121746.3
2104541.6
2085500.9
2168001.2
2165869
2161482.5
2154706.3
2145724.6
2134630.7
2121515.9
2106486.5
2089662.3
2071169.8
2151101.9
2148963.8
2144552.8
2137954.2
2129229.5
2118454.3
2105717.6
2091123.1
2074787.5
2056835.3
2133989.6
2131915.3
2127633
2121226.7
2112756.5
2102296.4
2089933.5
2075768.7
2059916.7
2042499.4
2116908.3
2114897.1
2110742
2104525.8
2096307.5
2086159.1
2074166.1
2060429
2044686.6
2027151.8
2099863.2
2097914.5
2093885.5
2087771.3
2079516.1
2069318.6
2057262.9
2043446.7
2027980.6
2010981.8
2081330
2079379.6
2075336.1
2069283.9
2061279.8
2051393.4
2039706.6
2026314.6
2011325
1994852.5
2062544.9
2060656.6
2056738.7
2050873.9
2043118
2033538.6
2022215.7
2009242.2
1994722.9
1978770.3
2043842.6
2042015.4
2038220.9
2032540.7
2025028.9
2015751.7
2004787.3
1992226.4
1978166.4
1962119.9
2025227.7
2023460.8
2019788.5
2014290.8
2007020.8
1997712.1
1986704.5
1974086.2
1959957.5
1944424.9
2005650.7
2003884.7
2000203.9
1994690.3
1987396.1
1978384.2
1967728.5
1955514.8
1941840.2
1926808.6
1985562
1983855.1
1980294.2
1974959.6
1967902.2
1959183
1948874.2
1937059.3
1923832.8
1909296.1
1965608.5
1963959.3
1960515.3
1955355.2
1948528.5
1940094.7
1930123.9
1918697.8
1905908.5
1891839.2
1945830