/*--------------------------------*- C++ -*----------------------------------*\
  =========                 |
  \\      /  F ield         | OpenFOAM: The Open Source CFD Toolbox
   \\    /   O peration     | Website:  https://openfoam.org
    \\  /    A nd           | Version:  7
     \\/     M anipulation  |
\*---------------------------------------------------------------------------*/
FoamFile
{
    version     2.0;
    format      ascii;
    class       volScalarField;
    location    "80000";
    object      rho;
}
// * * * * * * * * * * * * * * * * * * * * * * * * * * * * * * * * * * * * * //

dimensions      [1 -3 0 0 0 0 0];

internalField   nonuniform List<scalar> 
87000
(
0.36925528
0.36925494
0.36925404
0.36925216
0.36924809
0.36923793
0.36920513
0.36906376
0.36771901
0.3393249
0.36923988
0.36923812
0.36923146
0.36921723
0.369186
0.36911028
0.36890978
0.36806837
0.36365029
0.32780872
0.36920036
0.36919426
0.36917255
0.36912679
0.36903125
0.36882841
0.36830518
0.36614388
0.35804921
0.31894055
0.36912178
0.36910536
0.36905454
0.36895331
0.368762
0.36832882
0.36707477
0.36337276
0.35171341
0.31208197
0.36898763
0.36895157
0.36885842
0.36868901
0.36832664
0.36753151
0.36537155
0.36076249
0.34536395
0.30712546
0.36877848
0.3687169
0.36857574
0.36828746
0.36774624
0.36630462
0.3631985
0.35704364
0.33945839
0.30361135
0.36847455
0.36839015
0.36818572
0.36775698
0.36683827
0.36480974
0.36069681
0.35305702
0.33413989
0.30089797
0.36806527
0.36797191
0.36766474
0.36712023
0.36565091
0.36302557
0.35796835
0.34899783
0.32940178
0.29864694
0.36754051
0.36742078
0.36702761
0.36615547
0.36429022
0.36096133
0.35618968
0.34499246
0.32521152
0.29678248
0.36689679
0.36673608
0.36629217
0.36496181
0.36269844
0.35870112
0.35321691
0.3411345
0.32150307
0.29514056
0.3661379
0.3659264
0.3653468
0.36363228
0.36094395
0.35636904
0.35016799
0.33745634
0.31818323
0.29364296
0.36521477
0.36502129
0.36407755
0.36212612
0.35897038
0.35388704
0.34710034
0.33396083
0.31518379
0.29224271
0.36414312
0.36401755
0.3626533
0.36046364
0.35683835
0.35133706
0.34403477
0.33065679
0.31243941
0.29096284
0.36292143
0.36290531
0.36111995
0.35864014
0.35460549
0.35032554
0.34101066
0.32752617
0.30991845
0.28974876
0.36158597
0.36140279
0.35943843
0.35668383
0.35232812
0.34771951
0.33804687
0.32456554
0.30759785
0.28859528
0.36013973
0.35966544
0.35761469
0.3545723
0.34997335
0.34508029
0.33516952
0.32178064
0.30543725
0.28748153
0.35857829
0.35774059
0.35564583
0.35233087
0.34751436
0.34242342
0.33233707
0.31913224
0.30344774
0.28639725
0.35692203
0.35579011
0.35355081
0.34997569
0.34500863
0.33976371
0.32958242
0.31660596
0.3015414
0.2853361
0.35515587
0.3536989
0.35135245
0.34756038
0.34246802
0.33711133
0.32690395
0.31419203
0.29969932
0.28433705
0.3532823
0.35151106
0.34905896
0.34512625
0.33990355
0.33446566
0.32426059
0.31186683
0.29791202
0.28333818
0.35132913
0.34919973
0.34661859
0.34262325
0.33970992
0.33183676
0.32170927
0.30963202
0.29625879
0.28234759
0.34929825
0.34676974
0.34408576
0.34007399
0.33716165
0.3292398
0.31923675
0.30749203
0.29465811
0.28137589
0.34685478
0.34423585
0.34147209
0.33746816
0.33461201
0.3266806
0.3168272
0.30542806
0.29309406
0.28041216
0.34424861
0.34161517
0.33878303
0.33479688
0.3320292
0.32412663
0.31447521
0.30346136
0.29155706
0.27945109
0.34152382
0.33890759
0.33602777
0.33211181
0.32945854
0.3216229
0.31217738
0.30154186
0.29011113
0.27852568
0.33869171
0.33612171
0.33321527
0.32937173
0.32688407
0.31915091
0.30993342
0.2996447
0.28869645
0.27761118
0.3357653
0.33326745
0.33037764
0.32663925
0.32430815
0.3167103
0.30773818
0.29776652
0.28729519
0.27669352
0.33276376
0.33037378
0.32745581
0.3238576
0.3217432
0.31430108
0.30558696
0.29600514
0.28590469
0.27577127
0.32970228
0.32739418
0.32457294
0.32110004
0.31919989
0.31192324
0.30350001
0.29425968
0.28454016
0.27484366
0.32655382
0.32441273
0.32166155
0.31830353
0.31667283
0.30958078
0.30145729
0.29252336
0.28323719
0.2739102
0.32335246
0.32139036
0.31874243
0.31551718
0.31416304
0.30727228
0.29941706
0.29080003
0.28193632
0.27298404
0.32020113
0.31837113
0.31579958
0.31272836
0.31167236
0.30499519
0.29737694
0.28917152
0.28063611
0.27206923
0.31703929
0.31531778
0.3128633
0.30995004
0.30920685
0.30277968
0.29545074
0.28754663
0.27933598
0.27114548
0.31390801
0.31227517
0.30993106
0.30717633
0.30676843
0.30058597
0.29352746
0.28592407
0.27807218
0.27022161
0.31082561
0.30925102
0.30700046
0.30440964
0.30435496
0.2983827
0.29160234
0.28431063
0.27683596
0.26930308
0.30781085
0.30623881
0.30408033
0.30166035
0.30200976
0.29621635
0.28972283
0.28277385
0.27559603
0.2683745
0.30482119
0.30324742
0.30118038
0.29892867
0.29966768
0.29412509
0.28790099
0.28123604
0.2743517
0.26744559
0.30181123
0.30028477
0.29829395
0.2962575
0.29730909
0.29202564
0.28607541
0.27969623
0.27310173
0.26652025
0.29880406
0.29734053
0.29544937
0.2935841
0.29503624
0.28993433
0.28424613
0.27816581
0.27188869
0.26558271
0.29582651
0.29444782
0.29266089
0.29087596
0.29279146
0.28794107
0.28250768
0.27670074
0.27067499
0.26464745
0.29296428
0.2916
0.28983391
0.28826877
0.2905355
0.28594161
0.28077201
0.27523142
0.26947432
0.26371283
0.29009509
0.28871696
0.2870487
0.28567129
0.28836283
0.2839371
0.27903289
0.27375808
0.26827975
0.26276812
0.28724359
0.28591156
0.28435232
0.28305023
0.28622068
0.28203306
0.27733349
0.27229632
0.26708891
0.26182808
0.28453672
0.28316364
0.28168841
0.28055624
0.28407348
0.2801339
0.27568411
0.27087643
0.2659137
0.26088817
0.28182203
0.28042941
0.27912983
0.27805229
0.28201526
0.27824321
0.27404586
0.26947699
0.26474706
0.25995605
0.2792128
0.27786136
0.27662102
0.27559003
0.27385549
0.27641193
0.27239299
0.2680921
0.26359726
0.2590278
0.27667535
0.27530496
0.27410926
0.27324224
0.27155089
0.27459709
0.27078839
0.26670115
0.26242707
0.25807825
0.27413048
0.27278823
0.27174737
0.27081542
0.26932486
0.27278466
0.2691965
0.26532899
0.26126732
0.2571291
0.27174276
0.27038568
0.26938262
0.26840919
0.26711741
0.27101991
0.26763675
0.26397164
0.26011687
0.25618236
0.2693632
0.26798263
0.26706213
0.26608735
0.26490734
0.2692885
0.26610213
0.26263226
0.25898191
0.25522869
0.2670784
0.26568039
0.26484586
0.26376314
0.26276957
0.26760623
0.26459425
0.2613169
0.2578594
0.25429429
0.26506113
0.26344036
0.2626418
0.26148579
0.26071021
0.25923503
0.26310489
0.2600091
0.25674136
0.25335793
0.26304355
0.26121316
0.26050931
0.25929601
0.25869133
0.2573023
0.26162572
0.25871475
0.25561952
0.2524126
0.26109694
0.25909455
0.25843861
0.25716822
0.25671352
0.2554027
0.26018384
0.25743265
0.25450713
0.25147074
0.25922258
0.25704446
0.25642362
0.2552012
0.25471167
0.25352051
0.25861807
0.25618509
0.25341954
0.25054351
0.25742522
0.25506208
0.25447496
0.2533217
0.25268154
0.25172532
0.25033355
0.25493241
0.25233145
0.24962054
0.25569939
0.25313512
0.25250175
0.25149683
0.25073525
0.24997115
0.24864916
0.25370533
0.25125547
0.24869252
0.25403089
0.25128043
0.25056873
0.24972238
0.24883693
0.24822247
0.24701666
0.24557056
0.25018231
0.24776574
0.25240065
0.24946759
0.24870232
0.24800552
0.24699128
0.24654577
0.24541834
0.24404759
0.24912788
0.24684162
0.25082365
0.24771782
0.24694682
0.24632505
0.24520353
0.24477024
0.24383395
0.24254432
0.24622204
0.2459304
0.24931331
0.2460168
0.24526127
0.2447021
0.24361385
0.24303661
0.24227846
0.241099
0.23969572
0.2450241
0.24785593
0.24437342
0.24363082
0.24311586
0.24210313
0.2413541
0.24077525
0.23965468
0.23837785
0.23690551
0.24644206
0.24277949
0.24204726
0.24158164
0.2406345
0.23972955
0.23920648
0.23826104
0.23706098
0.2357002
0.24508539
0.24135162
0.24051803
0.24005375
0.23921029
0.23815681
0.23765303
0.23689272
0.2357511
0.23448076
0.24378013
0.23996992
0.23903539
0.2385093
0.23782983
0.23681458
0.23614091
0.23552169
0.23449044
0.23328701
0.24253672
0.23863905
0.23762481
0.23701
0.23648776
0.23553656
0.23468158
0.23407958
0.23324975
0.23211116
0.24133774
0.23734547
0.23627747
0.2356408
0.23518728
0.2343038
0.23326088
0.23269183
0.2319879
0.23098022
0.24017928
0.23610055
0.23497837
0.23433689
0.23393475
0.23309997
0.23213557
0.23135597
0.23068762
0.2298941
0.23904763
0.23492664
0.23372041
0.23308278
0.23262207
0.23194123
0.23102903
0.23007477
0.22944248
0.22869462
0.23795288
0.23421988
0.23249298
0.23186297
0.23132911
0.23080453
0.22995996
0.22899552
0.22823786
0.22753729
0.23686564
0.23350236
0.23131366
0.23067835
0.2301006
0.22970744
0.22890807
0.22801087
0.22707155
0.2264084
0.23563272
0.23276577
0.23018879
0.22955074
0.22899074
0.22860727
0.22788939
0.22704066
0.22610906
0.22531544
0.23445112
0.23203558
0.2292106
0.228471
0.22791025
0.22744363
0.22688717
0.22609767
0.22521671
0.22426688
0.23330138
0.23129629
0.22825095
0.22742981
0.22685609
0.22631201
0.22591535
0.22516683
0.2243464
0.22344636
0.23219377
0.23055783
0.22730484
0.22640543
0.22583275
0.2252905
0.22492069
0.22426392
0.22348396
0.22264153
0.2311188
0.22982022
0.22638313
0.22541227
0.22482991
0.22432472
0.22387119
0.22337063
0.22264286
0.2218503
0.23007558
0.22907992
0.22546986
0.2244385
0.22389953
0.22338309
0.22284399
0.22250054
0.22181705
0.22107156
0.2290663
0.22835095
0.22500225
0.22353785
0.2229858
0.22245952
0.22193732
0.22153319
0.22100595
0.22030473
0.22808104
0.22762195
0.22459926
0.22275401
0.22209493
0.22155983
0.22107044
0.22058046
0.22020931
0.21954962
0.22712634
0.22690213
0.22417555
0.22198134
0.22122328
0.22070065
0.22022161
0.2197014
0.21931296
0.21880581
0.22619894
0.22616982
0.22372701
0.2212168
0.22036955
0.2198843
0.21939037
0.21890244
0.21842575
0.21805287
0.22529702
0.22525428
0.22325524
0.22046028
0.21953328
0.21908215
0.21857547
0.21811764
0.217606
0.2172066
0.22441833
0.22436508
0.22276397
0.2198425
0.21886621
0.21829353
0.21780481
0.2173462
0.21686553
0.21638049
0.22356146
0.22350041
0.22225982
0.21962828
0.21820052
0.21751788
0.21706334
0.21658754
0.21613668
0.21564277
0.22272516
0.22265858
0.22174185
0.2193703
0.21753558
0.21675452
0.21633165
0.21585207
0.21541795
0.21495286
0.22190815
0.22183787
0.22120737
0.21906923
0.21687158
0.21609777
0.21560916
0.21516127
0.2147086
0.21427033
0.2211088
0.22103632
0.2206572
0.21872913
0.21623163
0.21550001
0.21489518
0.21447755
0.21401526
0.21359529
0.22032562
0.22025214
0.22009315
0.21835803
0.21610369
0.21489851
0.21418903
0.21379942
0.21336643
0.21292717
0.21955738
0.21948383
0.21932625
0.2179571
0.21592044
0.21429293
0.2136063
0.2131265
0.21272057
0.21227815
0.21880263
0.21872945
0.21857417
0.21752565
0.2156839
0.21368306
0.21305085
0.21245792
0.2120777
0.21166239
0.21805953
0.21798758
0.21783528
0.21706452
0.21540031
0.2133787
0.21248679
0.21183492
0.21143694
0.21104629
0.21732653
0.21725626
0.21710766
0.2165773
0.21507443
0.21323934
0.2119149
0.21131154
0.21079726
0.21042936
0.21660202
0.21653371
0.2163897
0.21606515
0.21470637
0.213038
0.21133392
0.21077485
0.21016052
0.20981198
0.21588415
0.215818
0.21567889
0.21546789
0.21429597
0.21277962
0.21101182
0.21022607
0.20965539
0.20919242
0.21517104
0.21510716
0.214973
0.21476981
0.21384752
0.21247012
0.21085493
0.20966507
0.20913313
0.20856964
0.21446071
0.21439912
0.21426996
0.21407462
0.21336275
0.21210901
0.21062969
0.20909034
0.20859417
0.20805469
0.21375098
0.21369166
0.21356739
0.21337965
0.21284149
0.21169674
0.2103422
0.20880219
0.20803939
0.20753392
0.21303962
0.2129825
0.21286297
0.21268255
0.21228473
0.21123694
0.20999545
0.20857583
0.20746711
0.20699253
0.21232418
0.21226919
0.21215417
0.21198067
0.21169183
0.21073009
0.20958897
0.20827675
0.20687642
0.20643017
0.21160185
0.21154883
0.21143802
0.21127092
0.2110471
0.21017528
0.20912257
0.20790922
0.2065517
0.20584683
0.21086961
0.21081841
0.21071149
0.21055024
0.21033434
0.20957318
0.20859939
0.20747527
0.20621087
0.20524045
0.21012436
0.21007484
0.20997147
0.20981559
0.2096069
0.20892365
0.20801944
0.20697391
0.20579188
0.20460955
0.2093624
0.20931438
0.20921418
0.20906306
0.20886072
0.20822325
0.20738021
0.20640391
0.20529673
0.20407223
0.20857986
0.20853316
0.20843572
0.20828876
0.20809196
0.20747069
0.20668159
0.20576641
0.20472689
0.20357262
0.20777252
0.20772694
0.20763188
0.20748848
0.20728394
0.20666354
0.205922
0.20506076
0.20408107
0.20298911
0.20693584
0.20689121
0.20679813
0.20665768
0.20638425
0.2057994
0.20509945
0.20428559
0.20335857
0.20232224
0.20606496
0.20602107
0.20592958
0.20579157
0.20542927
0.20487527
0.20421187
0.20343969
0.2025591
0.20157269
0.20515533
0.20511212
0.20502205
0.20483753
0.20441562
0.20388872
0.20325746
0.20252204
0.20168253
0.20074155
0.20420211
0.2041593
0.20404519
0.20374316
0.20334051
0.20283775
0.202235
0.20153232
0.20073019
0.19982977
0.20316344
0.20306941
0.20287697
0.20258794
0.20220278
0.20172159
0.20114487
0.20047211
0.19970299
0.19883968
0.2019236
0.20183347
0.20164914
0.20137233
0.2010033
0.2005421
0.1999886
0.19934261
0.1986038
0.19777527
0.2006275
0.20054107
0.20036412
0.20009829
0.1997438
0.19930061
0.19876864
0.19814788
0.19743815
0.19664313
0.19927741
0.1991944
0.19902436
0.19876899
0.19842851
0.19800285
0.19749187
0.19689537
0.19621333
0.1955006
0.19788073
0.19780109
0.19763792
0.19739275
0.19706576
0.19665696
0.19616627
0.19559375
0.19494057
0.19442971
0.19644664
0.19637037
0.1962141
0.1959793
0.19566617
0.19527477
0.19480502
0.19425691
0.19363303
0.19331732
0.19498931
0.19491649
0.19476724
0.19454297
0.19424397
0.19387055
0.19342262
0.19290065
0.19239299
0.1921676
0.19352588
0.19345673
0.19331502
0.19310214
0.19281839
0.19246398
0.19203908
0.19154488
0.19120378
0.19098563
0.19207479
0.19200955
0.19187584
0.19167503
0.19140747
0.19107344
0.19067317
0.19020844
0.18998755
0.18977724
0.19065832
0.19059722
0.19047203
0.19028403
0.19003364
0.18972123
0.18934727
0.1889332
0.18875304
0.18855103
0.18929764
0.1892409
0.18912469
0.18895025
0.18871801
0.18842841
0.18808195
0.18768208
0.1875098
0.18731663
0.18801189
0.18795969
0.18785278
0.18769235
0.18747883
0.18721271
0.18689452
0.1865254
0.18626848
0.1860848
0.18681574
0.18676812
0.1866706
0.18652429
0.1863296
0.18608698
0.18579704
0.18546045
0.18507826
0.18486669
0.18571763
0.18567449
0.18558612
0.18545354
0.18527717
0.18505745
0.18479494
0.18449026
0.18414414
0.18375746
0.18471842
0.18467955
0.18459993
0.1844804
0.18432139
0.18412328
0.18388658
0.18361184
0.18329971
0.18295091
0.18381222
0.18377727
0.18370565
0.18359816
0.18345512
0.18327678
0.18306356
0.18281598
0.18253458
0.18221995
0.18298734
0.18295589
0.18289139
0.18279454
0.18266562
0.18250489
0.18231267
0.18208924
0.18183492
0.18155033
0.18222929
0.18220087
0.18214251
0.18205485
0.18193808
0.18179243
0.18161811
0.1814154
0.18118461
0.18092608
0.18152325
0.18149743
0.1814443
0.18136435
0.18125781
0.18112483
0.18096556
0.1807802
0.18056896
0.18033206
0.18084836
0.18082793
0.18078286
0.1807095
0.18061171
0.1804896
0.18034315
0.1801726
0.17997812
0.17975951
0.18013284
0.18011369
0.180074
0.18001421
0.17993438
0.17983454
0.17971467
0.17957476
0.179402
0.17919895
0.17945643
0.17943839
0.17940099
0.17934463
0.17926937
0.17917518
0.17906203
0.17892989
0.17877872
0.17860845
0.17881264
0.17879557
0.1787601
0.17870659
0.17863511
0.17854563
0.17843811
0.17831247
0.17816821
0.17800562
0.17819472
0.17817844
0.1781446
0.1780936
0.17802522
0.17793957
0.17783661
0.17771612
0.17757801
0.17742228
0.17759804
0.17758235
0.17754971
0.1775005
0.17743473
0.17735237
0.17725336
0.17713761
0.17700505
0.17685553
0.17702007
0.17700492
0.17697338
0.17692583
0.17686226
0.17678265
0.17668692
0.176575
0.1764468
0.17630216
0.17645834
0.17644371
0.17641321
0.1763672
0.1763057
0.17622867
0.17613575
0.17602702
0.17590245
0.17576189
0.17591185
0.1758976
0.17586788
0.17582305
0.17576312
0.17568804
0.17559775
0.17549218
0.17537119
0.17523405
0.17538004
0.17536611
0.17533703
0.17529317
0.17523453
0.17516107
0.17507273
0.17496943
0.17485108
0.17471753
0.17486232
0.17484874
0.1748202
0.17477714
0.17471957
0.17464746
0.17456073
0.17445932
0.17434314
0.17421204
0.1743558
0.17434253
0.17431478
0.17427292
0.17421696
0.17414686
0.17406173
0.17396187
0.17384746
0.17371838
0.17386187
0.17384879
0.17382144
0.17378016
0.17372498
0.17365586
0.17357276
0.1734756
0.17336362
0.17323678
0.17338068
0.17336776
0.17334071
0.1732999
0.17324534
0.173177
0.17309484
0.17299878
0.17288876
0.17276436
0.17291241
0.1728996
0.1728728
0.17283234
0.17277826
0.17271052
0.17262909
0.17253389
0.17242486
0.17230189
0.17245457
0.17244195
0.17241555
0.1723757
0.17232243
0.17225573
0.17217555
0.17208136
0.17197305
0.17185091
0.17200843
0.17199575
0.1719692
0.17192915
0.17187588
0.17180949
0.17172968
0.17163642
0.17152963
0.17140923
0.17157469
0.17156207
0.17153564
0.17149575
0.17144244
0.17137569
0.17129595
0.17120291
0.1710964
0.17097631
0.17114823
0.17113577
0.17110967
0.17107029
0.17101766
0.17095177
0.17087258
0.17078038
0.17067512
0.17055579
0.17073211
0.17071966
0.17069359
0.17065423
0.17060164
0.1705358
0.17045667
0.17036424
0.1702587
0.17013996
0.17032528
0.17031297
0.17028717
0.17024825
0.17019624
0.17013113
0.1700529
0.16996094
0.16985499
0.16973581
0.16992504
0.1699127
0.16988684
0.16984781
0.16979565
0.16973034
0.16965188
0.16956024
0.16945537
0.16933724
0.16964731
0.16960375
0.16951487
0.16945851
0.16940683
0.16934214
0.1692642
0.16917207
0.16906664
0.16894785
0.16943016
0.16938626
0.16929674
0.16916219
0.16902039
0.16895525
0.168877
0.16878563
0.1686811
0.16856335
0.16921505
0.16917108
0.16908141
0.1689467
0.16876698
0.16858082
0.16850316
0.16841199
0.16830651
0.16818769
0.16899384
0.16894975
0.16885976
0.16872463
0.16854445
0.16831942
0.16812845
0.16803686
0.16793216
0.16781428
0.1687691
0.16872523
0.16863589
0.16850151
0.16832218
0.16809817
0.16782987
0.16767425
0.1675703
0.16745272
0.16854354
0.1684995
0.16840982
0.16827551
0.16809657
0.16787304
0.16760536
0.16731429
0.16720955
0.16709176
0.16830975
0.16826572
0.16817605
0.16804179
0.16786352
0.16764131
0.16737534
0.16706643
0.16685321
0.16673505
0.16806905
0.1680253
0.16793619
0.16780278
0.16762539
0.16740443
0.16714061
0.16683413
0.1665014
0.16638285
0.16782091
0.16777731
0.16768849
0.16755554
0.16737911
0.16716002
0.1668998
0.16659753
0.16625344
0.16603518
0.16756716
0.16752376
0.16743531
0.16730295
0.16712735
0.16690939
0.16665091
0.16635284
0.16601449
0.1656917
0.16730844
0.16726526
0.16717725
0.16704556
0.16687092
0.16665424
0.16639665
0.16610267
0.16576922
0.16539793
0.16704155
0.16699889
0.16691194
0.16678185
0.16660934
0.16639531
0.16613956
0.16584798
0.16551993
0.16515467
0.1667678
0.16672549
0.16663921
0.16651014
0.16633904
0.16612687
0.16587483
0.16558656
0.165266
0.16490797
0.16649064
0.16644871
0.16636316
0.16623521
0.16606566
0.16585551
0.165606
0.1653187
0.16500437
0.16465423
0.16620614
0.1661649
0.16608077
0.16595492
0.16578817
0.16558151
0.16533536
0.16505136
0.1647403
0.16439746
0.16591588
0.16587515
0.16579203
0.16566772
0.16550305
0.16529908
0.16505706
0.16477857
0.16447189
0.16413821
0.16562439
0.1655842
0.16550212
0.16537941
0.16521694
0.16501579
0.16477731
0.16450309
0.16419885
0.1638727
0.16532257
0.1652833
0.16520308
0.16508315
0.16492435
0.16472773
0.1644946
0.1642265
0.16392565
0.16360686
0.16502031
0.16498172
0.16490285
0.16478494
0.1646289
0.16443582
0.16420704
0.16394417
0.16364908
0.16333679
0.16471182
0.16467427
0.16459748
0.16448269
0.16433075
0.16414273
0.1639199
0.16366277
0.16337373
0.16306537
0.16439964
0.16436289
0.1642877
0.16417532
0.16402664
0.16384275
0.16362497
0.16337488
0.1630943
0.16279198
0.16408417
0.16404857
0.16397569
0.16386673
0.16372256
0.1635442
0.1633319
0.1630875
0.16281351
0.16251581
0.16376281
0.1637281
0.163657
0.16355072
0.16341013
0.1632363
0.16303051
0.16279427
0.16252928
0.16223898
0.16343988
0.1634064
0.16333777
0.16323517
0.16309941
0.16293151
0.16273091
0.16250055
0.16224227
0.16195785
0.16311018
0.16307765
0.16301087
0.16291103
0.16277896
0.16261566
0.16242234
0.1622004
0.16195141
0.16167702
0.16277934
0.16274809
0.16268388
0.16258785
0.16246078
0.16230363
0.16211668
0.16190112
0.16165929
0.16139274
0.16244531
0.16241506
0.16235284
0.16225978
0.16213663
0.16198432
0.16180387
0.16159534
0.16136128
0.16110314
0.16210602
0.16207687
0.16201683
0.161927
0.1618081
0.161661
0.16148673
0.16128542
0.16105807
0.16080713
0.16176162
0.16173345
0.16167534
0.16158836
0.1614732
0.16133067
0.16116172
0.16096744
0.16074906
0.16050778
0.16141467
0.16138773
0.1613321
0.16124881
0.16113849
0.16100188
0.16083987
0.16065346
0.16044342
0.16020766
0.16107008
0.16104396
0.16098991
0.16090892
0.1608016
0.16066862
0.16051078
0.160329
0.16012426
0.15989755
0.16071609
0.16069111
0.16063938
0.16056183
0.16045901
0.16033156
0.1601802
0.16000576
0.15980912
0.15959118
0.16036745
0.16034358
0.16029407
0.16021984
0.16012111
0.15999694
0.1598493
0.15967892
0.15948658
0.15927302
0.16001161
0.15998843
0.15994024
0.15986792
0.15977193
0.15965277
0.15951101
0.15934729
0.15916232
0.15895676
0.15965763
0.15963544
0.15958927
0.15951995
0.1594279
0.15931358
0.15917749
0.15902021
0.15883957
0.158638
0.15930526
0.15928371
0.15923875
0.1591712
0.1590814
0.15896976
0.15883669
0.15868269
0.15850825
0.15831386
0.15894818
0.15892751
0.15888433
0.15881943
0.15873313
0.15862578
0.15849776
0.1583495
0.15818143
0.15799399
0.15861385
0.1585768
0.15853534
0.15847299
0.15839006
0.15828652
0.15816142
0.15801634
0.15785164
0.15766765
0.15829762
0.15822381
0.15818336
0.15812248
0.15804142
0.15794045
0.15781983
0.15767986
0.15752086
0.15734312
0.15797666
0.15790373
0.15783352
0.15777489
0.1576968
0.15759948
0.15748317
0.15734814
0.15719465
0.15702219
0.15765556
0.15758735
0.15748901
0.15743221
0.15735602
0.15726099
0.15714732
0.15701522
0.1568649
0.15669657
0.15732715
0.1572632
0.15714138
0.1570862
0.15701265
0.1569209
0.1568111
0.15668345
0.15653813
0.15637531
0.15699851
0.15693882
0.15681677
0.15674538
0.15667438
0.15658577
0.1564797
0.15635634
0.15621583
0.15605672
0.15667096
0.15661529
0.15650103
0.15640847
0.15633902
0.15625233
0.15614852
0.15602777
0.15589025
0.15573611
0.15633648
0.15628462
0.15617834
0.15606953
0.15600244
0.15591867
0.15581837
0.15570167
0.15556874
0.15541973
0.15600345
0.1559554
0.15585676
0.15573556
0.15567073
0.15558979
0.15549286
0.15538006
0.15525156
0.1551075
0.15567224
0.15562783
0.15553653
0.15540644
0.1553438
0.15526558
0.15517189
0.15506287
0.15493863
0.15479933
0.15534303
0.15530211
0.15521783
0.15509111
0.15502151
0.15494591
0.15485536
0.15474995
0.15462983
0.15449511
0.15501597
0.15497839
0.15490085
0.15478415
0.15470379
0.15463072
0.15454318
0.15444128
0.15432512
0.1541948
0.15469116
0.15465679
0.1545857
0.1544786
0.15439044
0.15431912
0.15423383
0.15413474
0.15402209
0.15389613
0.15436582
0.1543343
0.15426893
0.15417021
0.15407635
0.15400779
0.1539258
0.15383057
0.15372232
0.15360129
0.15404202
0.15401332
0.15395359
0.15386327
0.15376654
0.15370066
0.15362187
0.15353037
0.15342637
0.15331011
0.15372097
0.15369496
0.15364068
0.15355842
0.15346095
0.15339766
0.15332198
0.15323408
0.15313419
0.15302255
0.15340269
0.15337927
0.1533302
0.15325569
0.15315946
0.15309867
0.15302598
0.15294158
0.15284566
0.15273847
0.15308722
0.15306629
0.15302222
0.15295516
0.15286444
0.1528036
0.15273381
0.15265278
0.15256071
0.15245783
0.15277458
0.15275603
0.15271678
0.15265685
0.15257553
0.15251235
0.15244536
0.1523676
0.15227924
0.15218129
0.15246479
0.15244854
0.15241389
0.15236083
0.15228867
0.15222505
0.15216127
0.15208757
0.15200432
0.15191193
0.15216515
0.15215067
0.15211955
0.15207146
0.15200528
0.15194199
0.15188157
0.1518118
0.15173301
0.15164563
0.15187042
0.1518573
0.15182894
0.15178507
0.1517246
0.15166242
0.15160527
0.1515393
0.15146485
0.15138233
0.15157894
0.15156712
0.15154143
0.1515016
0.15144659
0.15138627
0.1513323
0.15127002
0.15119977
0.15112196
0.15129067
0.1512801
0.15125696
0.15122101
0.15117126
0.15111347
0.15106257
0.15100388
0.15093771
0.15086447
0.15100556
0.1509962
0.15097551
0.15094328
0.15089856
0.15084394
0.15079604
0.15074082
0.15067862
0.15060982
0.15072358
0.15071536
0.15069703
0.15066837
0.1506285
0.15057761
0.15053261
0.15048078
0.15042242
0.15035793
0.15044466
0.15043755
0.15042148
0.15039626
0.15036102
0.1503146
0.15027224
0.15022408
0.15017292
0.15011705
0.15017155
0.1501659
0.15015283
0.15013199
0.15010237
0.15006265
0.15002455
0.14998255
0.14993584
0.14988501
0.1499159
0.14991087
0.14989909
0.14988027
0.14985351
0.14981761
0.14978187
0.14974366
0.14970129
0.14965536
0.14966322
0.14965879
0.14964825
0.14963138
0.14960737
0.14957514
0.1495419
0.14950736
0.14946921
0.14942804
0.14941347
0.14940961
0.14940027
0.14938527
0.1493639
0.1493352
0.14930457
0.14927362
0.14923957
0.14920303
0.14916658
0.14916326
0.14915508
0.14914188
0.14912306
0.14909774
0.14906985
0.14904238
0.14901232
0.14898028
0.14892248
0.1489197
0.14891262
0.14890117
0.14888479
0.14886273
0.14883766
0.14881358
0.14878742
0.14875975
0.14868112
0.14867885
0.14867285
0.14866307
0.14864904
0.14863013
0.14860796
0.14858719
0.14856481
0.14854141
0.14844244
0.14844067
0.1484357
0.14842753
0.14841578
0.14839988
0.1483807
0.14836315
0.14834445
0.14832797
0.14820637
0.14820508
0.14820111
0.1481945
0.14818497
0.14817446
0.14816145
0.14815117
0.14814135
0.1481328
0.14798248
0.14798211
0.14798011
0.14797659
0.14797129
0.14796389
0.14795436
0.14794806
0.14794279
0.14793938
0.14776543
0.14776557
0.14776465
0.14776279
0.1477598
0.14775543
0.14774941
0.14774693
0.1477461
0.14774769
0.1475507
0.14755135
0.14755147
0.14755122
0.14755047
0.14754903
0.14754672
0.14754773
0.14755124
0.14755771
0.14733824
0.14733938
0.14734052
0.14734184
0.14734326
0.14734466
0.14734594
0.14735087
0.14736298
0.14738012
0.14712904
0.14713096
0.1471338
0.14713782
0.14714307
0.14714964
0.14715765
0.14717007
0.14718779
0.1472112
0.14693061
0.14693317
0.14693733
0.14694335
0.14695133
0.1469614
0.14697375
0.14699085
0.14701404
0.14704358
0.1467342
0.14673738
0.14674282
0.14675079
0.14676143
0.14677492
0.14679149
0.14681319
0.14684173
0.14687726
0.14653975
0.14654355
0.14655023
0.14656011
0.14657335
0.14659016
0.14661084
0.14663708
0.14667086
0.14671222
0.14634725
0.14635164
0.14635954
0.14637128
0.14638705
0.1464071
0.14643177
0.14646652
0.14651136
0.14656656
0.14615953
0.14616489
0.14617489
0.14618996
0.14621047
0.14623694
0.14627
0.14631115
0.1463631
0.14642622
0.14598082
0.14598703
0.14599875
0.14601641
0.14604041
0.14607127
0.14610967
0.14615691
0.14621582
0.14628669
0.1458038
0.14581083
0.14582423
0.14584442
0.14587183
0.14590699
0.14595061
0.14600382
0.14606955
0.146148
0.14562843
0.14563627
0.14565131
0.14567399
0.14570472
0.14574409
0.14579281
0.14585188
0.14592428
0.14601015
0.14545468
0.14546331
0.14547996
0.14550506
0.14553906
0.14558254
0.14563623
0.14570464
0.14579088
0.14589415
0.14528489
0.14529473
0.14531399
0.14534322
0.14538311
0.14543455
0.14549865
0.14557676
0.14567204
0.14578547
0.14512568
0.14513664
0.14515819
0.14519085
0.14523532
0.14529247
0.14536343
0.14544953
0.14555369
0.14567708
0.14496783
0.1449799
0.14500369
0.14503971
0.14508865
0.14515141
0.14522908
0.145323
0.14543587
0.14556903
0.14481134
0.1448245
0.14485048
0.14488979
0.14494313
0.14501136
0.14509561
0.1451972
0.14531862
0.14546135
0.14465618
0.1446704
0.14469853
0.14474107
0.14479871
0.14487232
0.14496301
0.14507208
0.14520521
0.14536888
0.14450232
0.14451757
0.14454781
0.14459454
0.14465924
0.1447424
0.14484556
0.14497055
0.1451201
0.14529659
0.14436244
0.14437959
0.14441384
0.14446581
0.14453644
0.14462696
0.14473888
0.14487399
0.14503486
0.14522394
0.1442258
0.1442444
0.14428158
0.14433793
0.14441438
0.14451212
0.14463263
0.14477766
0.14494962
0.14515107
0.14409022
0.14411024
0.14415029
0.14421094
0.14429309
0.14439791
0.14452685
0.14468162
0.14486446
0.14507804
0.14395569
0.1439771
0.14401998
0.14408485
0.14417259
0.14428436
0.14442157
0.14458589
0.14477942
0.14500486
0.14382217
0.14384496
0.1438906
0.14395961
0.14405285
0.14417143
0.14431673
0.14449813
0.14471492
0.14496873
0.14369495
0.14371999
0.14377045
0.14384696
0.14395067
0.14408306
0.14424593
0.14444139
0.1446718
0.1449406
0.14358824
0.1436151
0.14366923
0.1437512
0.14386212
0.14400341
0.1441768
0.14438432
0.14462823
0.14491174
0.14348225
0.14351087
0.14356854
0.1436558
0.14377371
0.14392363
0.14410723
0.14432644
0.14458346
0.14488126
0.14337702
0.14340738
0.14346856
0.14356106
0.14368588
0.14384435
0.14403806
0.14426888
0.1445389
0.1448509
0.1432725
0.14330457
0.1433692
0.14346683
0.14359845
0.14376531
0.14396896
0.14421116
0.14449394
0.1448198
0.14316868
0.14320244
0.14327046
0.14337316
0.14351146
0.14368658
0.14390016
0.14416523
0.14447503
0.14483184
0.14307479
0.14311148
0.14318571
0.14329793
0.14344924
0.14364104
0.14387499
0.14415298
0.14447704
0.14484897
0.14300835
0.14304704
0.14312529
0.14324348
0.14340263
0.14360402
0.14384921
0.14413993
0.14447803
0.14486492
0.14294219
0.14298284
0.14306504
0.1431891
0.14335593
0.14356675
0.14382294
0.14413401
0.14449988
0.1449171
0.14288357
0.14292765
0.1430171
0.14315204
0.14333335
0.14356213
0.14383965
0.14416731
0.14454657
0.14497814
0.14286451
0.14291052
0.14300387
0.1431446
0.14333346
0.14357145
0.1438597
0.14419946
0.14459195
0.14503789
0.14284533
0.14289324
0.14299044
0.14313685
0.14333316
0.14358022
0.14387904
0.14423061
0.14465014
0.14512599
0.14282606
0.14287596
0.1429809
0.14313886
0.14335032
0.14361586
0.14393616
0.14431182
0.1447434
0.14523137
0.14286051
0.14291394
0.14302231
0.14318533
0.14340336
0.14367686
0.14401103
0.14440766
0.14486146
0.14537237
0.14291328
0.14297009
0.14308515
0.14325803
0.14348879
0.14377753
0.14412431
0.1445291
0.14499216
0.14552664
0.14299812
0.14305648
0.14317425
0.14335112
0.14359024
0.14389513
0.14426001
0.14468423
0.14516695
0.14570732
0.14312435
0.1431859
0.14330998
0.14349607
0.1437438
0.14405271
0.14442222
0.14485419
0.14535725
0.14591767
0.14326945
0.14333422
0.14346489
0.14366048
0.14392027
0.1442433
0.14462838
0.14507414
0.145579
0.1461413
0.1434802
0.14354529
0.14367662
0.14387302
0.14413388
0.14445819
0.14485064
0.14531244
0.14583341
0.14641134
0.14371287
0.14378041
0.14391706
0.14412107
0.14439152
0.14472692
0.14512555
0.14558545
0.14610437
0.14669349
0.14399189
0.14405903
0.1441951
0.14439818
0.14466741
0.14501131
0.14542113
0.14589261
0.14642303
0.14700969
0.14431167
0.1443804
0.1445202
0.14472867
0.14500467