/*--------------------------------*- C++ -*----------------------------------*\
  =========                 |
  \\      /  F ield         | OpenFOAM: The Open Source CFD Toolbox
   \\    /   O peration     | Website:  https://openfoam.org
    \\  /    A nd           | Version:  7
     \\/     M anipulation  |
\*---------------------------------------------------------------------------*/
FoamFile
{
    version     2.0;
    format      ascii;
    class       volVectorField;
    location    "80000";
    object      U;
}
// * * * * * * * * * * * * * * * * * * * * * * * * * * * * * * * * * * * * * //

dimensions      [0 1 -1 0 0 0 0];

internalField   nonuniform List<vector> 
87000
(
(0.76587591 127.66707 -4.3267565e-13)
(1.7626575 125.4084 -8.0047942e-13)
(2.3450228 121.58725 -4.5822204e-13)
(2.7658293 116.44889 -1.24454e-13)
(2.9609132 110.414 8.710685e-16)
(3.1092932 103.64702 3.1979585e-14)
(3.0609175 95.166448 1.7880603e-14)
(2.210435 85.685244 1.3205819e-16)
(5.4252583 70.522315 -6.1581961e-14)
(3.3104929 32.317913 -1.5033225e-12)
(0.44287076 121.65099 7.6048553e-13)
(1.1046169 120.09996 1.1129821e-12)
(1.5616039 117.09057 1.7406706e-12)
(1.8822641 112.83601 1.1270955e-12)
(2.0111145 107.53892 1.7221768e-12)
(2.0259779 101.23991 1.6266923e-12)
(1.9276908 93.478223 5.4076247e-13)
(1.2039237 83.942641 1.3620265e-13)
(2.3473795 69.549068 -7.6010979e-14)
(0.93124271 39.803842 -1.9325551e-12)
(0.29972857 117.31426 4.1809959e-13)
(0.75555553 116.24198 8.5565269e-13)
(1.0846073 113.9724 1.1680849e-12)
(1.3187556 110.60294 1.1978622e-12)
(1.4173949 106.18051 1.2986741e-12)
(1.4141251 100.64072 1.1634192e-12)
(1.3733364 93.602466 6.1426779e-13)
(1.0489398 84.269993 1.3961154e-13)
(1.6393096 70.001593 -4.0435797e-13)
(1.0577956 45.100366 -2.8951314e-12)
(0.21029703 114.45948 2.6670954e-13)
(0.53798289 113.62433 7.0161597e-13)
(0.79142558 111.79337 9.1667784e-13)
(0.98402454 108.98567 9.7620057e-13)
(1.0848096 105.1587 9.7174975e-13)
(1.1082375 100.16968 7.0164446e-13)
(1.1151106 93.608022 -1.2628256e-13)
(0.99772529 84.502586 -2.1235796e-12)
(1.3411608 70.557169 -1.5760719e-12)
(1.1151666 48.915153 -4.6359782e-12)
(0.16032313 112.33479 1.3761982e-12)
(0.41188213 111.64087 4.6981609e-12)
(0.61572668 110.08773 1.1276157e-12)
(0.78360298 107.64822 -9.0140859e-13)
(0.89292595 104.22357 -1.9901644e-13)
(0.95766865 99.611739 -6.1219815e-13)
(1.0271785 93.359879 -2.7404577e-12)
(1.0579944 84.475328 -3.2129313e-12)
(1.3232548 71.087937 -5.3870595e-12)
(1.2337149 51.951257 -5.6852676e-12)
(0.13016827 110.68087 5.3488772e-13)
(0.33563215 110.07608 1.3741308e-12)
(0.50905555 108.7053 5.2161944e-13)
(0.66309205 106.51372 -4.6867063e-13)
(0.78387584 103.36477 -6.8484332e-13)
(0.88654521 99.014094 -1.3899788e-12)
(1.0078719 92.976801 -3.3646175e-12)
(1.144905 84.314395 -5.7719758e-12)
(1.3980989 71.592994 -5.3221163e-12)
(1.3447712 54.441293 -5.8425651e-12)
(0.11216344 109.32215 2.3314233e-13)
(0.28971591 108.77645 5.3258138e-13)
(0.44520943 107.52862 9.124541e-14)
(0.59186806 105.50629 -7.328876e-13)
(0.72624527 102.54783 -1.7536345e-12)
(0.86184616 98.378347 -3.8769258e-12)
(1.0198578 92.502499 -4.1587043e-12)
(1.2152409 84.069116 -5.7018193e-12)
(1.461161 72.03559 -5.6117529e-12)
(1.4197676 56.485581 -6.0242269e-12)
(0.10147795 108.15068 1.6450194e-12)
(0.2626047 107.6446 5.6892732e-12)
(0.40812484 106.48003 1.3130873e-12)
(0.55553417 104.57241 -7.7685011e-13)
(0.70477464 101.74435 -2.925808e-12)
(0.86922095 97.698554 -6.2259199e-12)
(1.0396721 91.948532 -5.6953091e-12)
(1.2507056 83.748583 -7.3808514e-12)
(1.4930484 72.38201 -6.2678412e-12)
(1.4602836 58.144778 -6.2842362e-12)
(0.094713088 107.10541 8.2639687e-13)
(0.24574371 106.6257 1.9269864e-12)
(0.38436766 105.51677 6.2740054e-13)
(0.53588966 103.68583 -1.1652789e-12)
(0.69857061 100.94289 -3.1359025e-12)
(0.88228225 96.979135 -5.5485546e-12)
(1.0705946 91.331287 -5.9475744e-12)
(1.2947409 83.379785 -6.9285908e-12)
(1.5258485 72.636571 -6.5141912e-12)
(1.4965964 59.496743 -6.4593073e-12)
(0.090196609 106.15614 9.3834276e-14)
(0.23462916 105.69382 -5.4373531e-15)
(0.37039404 104.6211 -1.68846e-12)
(0.52487532 102.84145 -4.8404294e-12)
(0.69596778 100.15397 -4.387095e-12)
(0.88930115 96.25018 -5.2431654e-12)
(1.1069121 90.697842 -5.8812098e-12)
(1.3521076 82.993839 -6.5726042e-12)
(1.5618503 72.823011 -6.4266484e-12)
(1.5344318 60.616147 -6.042449e-12)
(0.087915131 105.27635 -2.5329773e-13)
(0.22815157 104.82509 -8.5939461e-13)
(0.36715726 103.77462 -2.2168869e-12)
(0.52799352 102.02642 -4.2091226e-12)
(0.70613757 99.374162 -4.4539576e-12)
(0.90716968 95.516188 -5.1010883e-12)
(1.1344455 90.058104 -5.7513468e-12)
(1.3816773 82.592568 -6.2536288e-12)
(1.5747671 72.942437 -6.2716933e-12)
(1.5542726 61.53848 -5.9399657e-12)
(0.087613737 104.44894 -3.4405332e-13)
(0.22539321 104.00397 -1.0575007e-12)
(0.36766216 102.96623 -2.2424877e-12)
(0.53521964 101.23419 -3.6131579e-12)
(0.72002401 98.603226 -4.4167116e-12)
(0.92715944 94.782426 -5.4863601e-12)
(1.15737 89.410676 -8.0322958e-12)
(1.4001112 82.176112 -5.4101324e-12)
(1.5792027 72.999497 -8.3765131e-12)
(1.5654362 62.294879 -6.8343754e-12)
(0.089374893 103.64869 1.5141188e-12)
(0.22863106 103.20559 5.7130781e-12)
(0.37412467 102.17349 -4.7498746e-13)
(0.55029085 100.44702 -2.8045359e-12)
(0.74731621 97.826159 -4.030476e-12)
(0.93445223 94.033298 -4.7449577e-12)
(1.1448639 88.745922 -4.241712e-12)
(1.3914426 81.735638 -7.6650846e-12)
(1.5639833 72.99078 -5.1892583e-12)
(1.5590329 62.902378 -6.8650558e-12)
(0.090503007 102.85707 1.3971738e-13)
(0.23496065 102.41208 7.1025806e-14)
(0.3848275 101.37866 -3.6629312e-12)
(0.56400576 99.648595 -9.2672481e-13)
(0.7656891 97.02586 -6.7961693e-12)
(0.94972865 93.253121 -5.036942e-12)
(1.1567037 88.064541 -4.2371237e-12)
(1.3980047 81.272657 -3.1410166e-12)
(1.558143 72.924088 -5.2567117e-12)
(1.5571815 63.384772 -6.6211648e-12)
(0.0903734 102.09295 -3.12182e-13)
(0.24087534 101.64463 -1.1141914e-12)
(0.3959307 100.60433 -3.047699e-12)
(0.5739539 98.865931 -3.2696237e-12)
(0.77248431 96.240504 -6.0617167e-12)
(0.98056773 92.492262 -8.2561928e-12)
(1.2047472 87.398927 -5.1744308e-12)
(1.4259286 80.814896 -4.2145275e-12)
(1.5688456 72.827571 -5.2735448e-12)
(1.5682676 63.778548 -6.7328427e-12)
(0.091367238 101.35177 1.1017413e-12)
(0.24716147 100.89928 3.337994e-12)
(0.40840882 99.848298 -1.1753822e-12)
(0.59028674 98.098572 -3.1925743e-12)
(0.79026098 95.470236 -5.2560321e-12)
(1.0020181 91.750321 -6.53818e-12)
(1.2252483 86.745139 -5.3288409e-12)
(1.4338411 80.358417 -4.7830189e-12)
(1.5665201 72.702239 -5.4631131e-12)
(1.5689409 64.094102 -6.8158453e-12)
(0.092936898 100.61424 5.9105138e-13)
(0.25154341 100.15617 1.1884544e-12)
(0.41704489 99.092354 -9.8539895e-13)
(0.60375744 97.328723 -3.1272035e-12)
(0.80610837 94.695261 -5.4606296e-12)
(1.0175963 91.002124 -8.8665378e-12)
(1.2365576 86.087414 -6.0683888e-12)
(1.4354719 79.891807 -5.3326023e-12)
(1.5601075 72.543149 -5.7330645e-12)
(1.5657416 64.336684 -6.9461775e-12)
(0.094641753 99.875934 1.5713048e-13)
(0.25546254 99.411242 1.2747896e-13)
(0.42424624 98.334319 -1.3912569e-12)
(0.61466185 96.5562 -3.3903581e-12)
(0.81764932 93.917943 -5.8438224e-12)
(1.0273976 90.252472 -8.7540567e-12)
(1.2412813 85.428656 -5.632206e-12)
(1.4313737 79.416568 -7.8804792e-12)
(1.5505083 72.353771 -5.3858327e-12)
(1.5596846 64.514735 -8.2178288e-12)
(0.096867274 99.142459 1.2114685e-12)
(0.26128991 98.670821 5.1889591e-12)
(0.43332444 97.581126 -4.1563982e-12)
(0.62471236 95.790732 -5.2911063e-12)
(0.82516532 93.153154 -8.6170143e-12)
(1.0320045 89.511713 -8.1226479e-12)
(1.2417755 84.775924 -6.2905224e-12)
(1.424603 78.938449 -6.6684749e-12)
(1.53938 72.141166 -6.1158013e-12)
(1.5520917 64.638553 -7.4928106e-12)
(0.10048074 98.394507 -2.6669892e-13)
(0.27157778 97.915183 -1.7722818e-12)
(0.45355021 96.811344 -8.3311832e-12)
(0.65532734 95.007106 -7.6843547e-12)
(0.81667145 92.368688 -1.0936812e-11)
(0.99332383 88.755726 -7.7021467e-12)
(1.2142679 84.111326 -5.3298619e-12)
(1.3985128 78.443755 -7.193709e-12)
(1.5126848 71.896592 -4.4467261e-12)
(1.5312453 64.705493 -6.7562051e-12)
(0.10246361 97.615007 1.087142e-11)
(0.27776579 97.127922 7.6140415e-12)
(0.46520206 96.007689 -4.1926905e-12)
(0.67130939 94.183789 -6.8370246e-12)
(0.82489323 91.54076 -8.3103887e-12)
(0.9963734 87.97777 -7.3157958e-12)
(1.2155326 83.429427 -6.0656941e-12)
(1.3910036 77.928696 -6.388936e-12)
(1.4990798 71.619126 -5.626687e-12)
(1.5192569 64.719621 -6.22247e-12)
(0.10650233 96.8448 4.5800617e-12)
(0.28411067 96.35122 8.7998533e-12)
(0.46786288 95.217129 -6.3182568e-13)
(0.66775969 93.380741 -5.2206737e-12)
(0.85703184 90.742629 -7.0468646e-12)
(1.0525039 87.223868 -6.9233528e-12)
(1.2499096 82.766711 -6.2702704e-12)
(1.4083442 77.42277 -6.1781104e-12)
(1.5067872 71.333867 -6.0046503e-12)
(1.5252753 64.703732 -6.6086224e-12)
(0.11328708 96.085811 1.6224944e-12)
(0.2965456 95.58506 3.5989806e-12)
(0.48058135 94.439195 -1.0562341e-12)
(0.67929914 92.595707 -4.8023013e-12)
(0.87333008 89.969879 -7.1410039e-12)
(1.06943 86.48831 -9.6803722e-12)
(1.2577289 82.119077 -7.0473108e-12)
(1.4086659 76.924164 -6.3980537e-12)
(1.5028747 71.041831 -6.4133487e-12)
(1.5231283 64.661411 -7.2006174e-12)
(0.11729483 95.309537 -7.6943974e-12)
(0.3052161 94.801342 -5.2021733e-12)
(0.49123406 93.644383 -1.065613e-11)
(0.69050087 91.794453 -1.2664482e-11)
(0.88431187 89.181117 -1.2530429e-11)
(1.07774 85.743637 -8.4586875e-12)
(1.2600709 81.465955 -3.5592039e-12)
(1.4051281 76.417299 -2.4207352e-12)
(1.4953839 70.732335 -4.1953175e-12)
(1.5165962 64.586541 -1.034399e-11)
(0.12044551 94.517985 -2.8573877e-12)
(0.31250691 94.003693 -4.6513745e-12)
(0.50073587 92.837635 -6.8206438e-12)
(0.7008664 90.983937 -5.5131057e-12)
(0.89353154 88.385692 -8.9073174e-12)
(1.083286 84.995577 -7.4101298e-12)
(1.2600776 80.809779 -5.0027695e-12)
(1.4008104 75.902851 -4.2869613e-12)
(1.4880819 70.405671 -5.989803e-12)
(1.509518 64.481068 -9.3811001e-12)
(0.12324606 93.713543 1.5477105e-12)
(0.31901949 93.194206 6.6321734e-12)
(0.5087711 92.020934 -1.1406673e-12)
(0.70904881 90.166499 -1.2511392e-12)
(0.90044443 87.586514 -5.5725056e-12)
(1.0868352 84.246437 -6.2313789e-12)
(1.2583156 80.152674 -5.4826652e-12)
(1.395103 75.383417 -5.4877113e-12)
(1.4808004 70.06479 -6.9360679e-12)
(1.5035837 64.349105 -9.5066557e-12)
(0.1256595 92.896062 8.6179505e-13)
(0.32444784 92.372639 2.2598752e-12)
(0.51601898 91.194394 -4.3843021e-13)
(0.71681551 89.34243 -1.622472e-12)
(0.90657161 86.784188 -4.3889313e-12)
(1.0896007 83.496598 -5.4934004e-12)
(1.2564129 79.494841 -5.6826017e-12)
(1.3881221 74.859261 -6.1696284e-12)
(1.471513 69.710823 -7.4992039e-12)
(1.4965396 64.192773 -9.5453863e-12)
(0.12779899 92.064925 2.5927168e-12)
(0.32982217 91.5386 7.1326799e-12)
(0.52271969 90.357725 1.2648937e-12)
(0.72324695 88.511028 -1.6384389e-12)
(0.91115361 85.977625 -3.823836e-12)
(1.0909264 82.744632 -5.069441e-12)
(1.2533163 78.834318 -5.7473817e-12)
(1.3799338 74.328406 -6.5331058e-12)
(1.4611384 69.34337 -7.8010711e-12)
(1.4884371 64.012698 -9.5123692e-12)
(0.1300999 91.218769 1.026752e-12)
(0.33501718 90.690642 2.5667014e-12)
(0.52786092 89.509063 -7.0425438e-13)
(0.72755989 87.670939 -4.9362175e-12)
(0.91392317 85.165729 -4.6382659e-12)
(1.0905324 81.989487 -5.2897191e-12)
(1.2485535 78.170295 -6.0230758e-12)
(1.3721802 73.79079 -6.9018395e-12)
(1.4520003 68.96273 -8.0823842e-12)
(1.4804326 63.810271 -9.5258666e-12)
(0.13218284 90.358432 -1.2809564e-12)
(0.33909094 89.82922 -5.8828993e-12)
(0.53206098 88.649287 1.9456442e-12)
(0.73176645 86.823121 -2.0404024e-12)
(0.91645982 84.349243 -2.5280632e-12)
(1.0894784 81.231779 -7.979182e-12)
(1.2439065 77.503524 -1.072694e-11)
(1.3655391 73.247464 -1.1191241e-11)
(1.4440559 68.569721 -1.0488493e-11)
(1.4733352 63.587181 -8.8290706e-12)
(0.13282275 89.484615 -1.0392365e-12)
(0.34117746 88.955379 -2.2903604e-12)
(0.53530772 87.779732 -6.6400711e-13)
(0.73473057 85.968686 -2.564766e-12)
(0.91738963 83.529197 -3.9015795e-12)
(1.087132 80.47254 -7.3578005e-12)
(1.2392492 76.835052 -9.3090522e-12)
(1.3582784 72.69887 -1.0081285e-11)
(1.435225 68.165231 -1.035034e-11)
(1.4660253 63.344848 -1.0068118e-11)
(0.13296814 88.595666 -7.4530006e-13)
(0.34253683 88.068014 -1.8370949e-12)
(0.5381275 86.899214 -2.0118026e-12)
(0.73732705 85.106292 -3.2229716e-12)
(0.91821771 82.704173 -4.756504e-12)
(1.0847517 79.710036 -6.9767855e-12)
(1.2329502 76.162635 -8.6464522e-12)
(1.3483328 72.14292 -9.62129e-12)
(1.4246428 67.748713 -1.0180691e-11)
(1.4577243 63.083471 -1.0615256e-11)
(0.13327436 87.69161 -6.0460817e-13)
(0.34393899 87.166689 -1.6406409e-12)
(0.54026795 86.00681 -2.4287936e-12)
(0.7387844 84.234772 -3.5853289e-12)
(0.91782638 81.872451 -5.0492701e-12)
(1.0812474 78.941909 -6.7637915e-12)
(1.2253986 75.484188 -8.2191795e-12)
(1.3387293 71.578968 -9.2760756e-12)
(1.415215 67.319821 -1.0090811e-11)
(1.4498033 62.803414 -1.0938966e-11)
(0.13284172 86.773818 -5.560539e-13)
(0.34351947 86.252646 -1.5745612e-12)
(0.54047051 85.103952 -2.5758962e-12)
(0.73859241 83.355739 -3.7668965e-12)
(0.9155693 81.035876 -5.1660392e-12)
(1.0768089 78.170411 -6.66773e-12)
(1.2196516 74.802153 -7.9589908e-12)
(1.3321878 71.009051 -9.0315569e-12)
(1.407688 66.879935 -9.9762021e-12)
(1.4427544 62.506297 -1.0943403e-11)
(0.13205108 85.842627 -5.6711948e-13)
(0.34260055 85.326539 -1.6327903e-12)
(0.54048391 84.191551 -2.8069701e-12)
(0.73826996 82.470016 -4.2766224e-12)
(0.91265322 80.195175 -6.3747256e-12)
(1.071569 77.396373 -1.0154429e-11)
(1.2131397 74.116836 -8.8727113e-12)
(1.3236081 70.432586 -9.2052901e-12)
(1.398077 66.428754 -9.9411267e-12)
(1.4347843 62.192474 -1.0824155e-11)
(0.13152642 84.896635 -6.0287992e-13)
(0.34203274 84.386987 -1.7388785e-12)
(0.54041796 83.267717 -3.0103114e-12)
(0.73757043 81.575143 -4.5266917e-12)
(0.90998134 79.347092 -6.3551916e-12)
(1.0659384 76.615973 -8.2756185e-12)
(1.2044063 73.424298 -8.646853e-12)
(1.312542 69.846711 -9.0665138e-12)
(1.3873025 65.965046 -9.5513375e-12)
(1.4265406 61.861467 -9.8332099e-12)
(0.13176535 83.937076 -6.6298659e-13)
(0.34205771 83.434841 -1.9139494e-12)
(0.53973756 82.333139 -3.3356701e-12)
(0.73498572 80.671681 -5.0728146e-12)
(0.906085 78.492195 -7.2820831e-12)
(1.0605052 75.829178 -1.0882584e-11)
(1.1964215 72.725027 -9.4237054e-12)
(1.3036643 69.252507 -9.3336036e-12)
(1.3793169 65.489781 -9.5508588e-12)
(1.4201717 61.514239 -9.841779e-12)
(0.13220336 82.967051 -7.8760997e-13)
(0.34229692 82.472863 -2.2526925e-12)
(0.5386257 81.390488 -3.7190847e-12)
(0.73197645 79.762224 -5.4888925e-12)
(0.90074294 77.633682 -7.6461487e-12)
(1.0537632 75.039574 -1.0128715e-11)
(1.1892901 72.02237 -1.2755834e-11)
(1.2963844 68.652614 -1.1023645e-11)
(1.371925 65.004744 -1.0982565e-11)
(1.4138293 61.152374 -8.8963524e-12)
(0.13224223 81.98579 -3.5051138e-12)
(0.3418291 81.500141 -1.1917207e-11)
(0.53642068 80.438536 -6.284122e-12)
(0.7297851 78.845519 -5.9952941e-12)
(0.89726234 76.769155 -6.511284e-12)
(1.0470623 74.244827 -6.5369975e-12)
(1.1803733 71.31363 -9.3775419e-12)
(1.2860256 68.04411 -9.8707585e-12)
(1.3613606 64.507758 -9.7330465e-12)
(1.4051195 60.774754 -8.5214261e-12)
(0.1309957 80.990766 -6.2106713e-12)
(0.33922804 80.514495 -9.4917152e-13)
(0.5338858 79.475468 -5.1230932e-12)
(0.72665482 77.919551 -1.0384268e-11)
(0.89294607 75.895802 -7.4851478e-12)
(1.0408861 73.441042 -6.851539e-12)
(1.1716519 70.59513 -7.3592987e-12)
(1.2757756 67.424383 -6.7372454e-12)
(1.3514647 63.997268 -8.0575967e-12)
(1.3970747 60.380366 -8.5709115e-12)
(0.12990837 79.985131 -1.4059767e-12)
(0.33769447 79.519567 -1.6951096e-12)
(0.53307873 78.504612 -4.5941762e-12)
(0.72356686 76.986653 -6.9396112e-12)
(0.88662817 75.017073 -6.8759868e-12)
(1.033654 72.632041 -6.8069607e-12)
(1.1644765 69.870529 -6.9683992e-12)
(1.2688081 66.796684 -7.0204094e-12)
(1.3449232 63.475978 -7.8683311e-12)
(1.3917771 59.971604 -8.6818434e-12)
(0.1299454 78.969525 7.0767206e-12)
(0.33745024 78.515019 1.7055101e-12)
(0.5308309 77.524659 -3.0391527e-12)
(0.72027803 76.045612 -5.4471899e-12)
(0.88189287 74.13106 -6.5070144e-12)
(1.0262527 71.816532 -7.4808189e-12)
(1.1559291 69.138777 -9.5602043e-12)
(1.2605535 66.159992 -6.8535068e-12)
(1.3375853 62.942881 -1.0388873e-11)
(1.3860875 59.54775 -9.8193781e-12)
(0.12908389 77.944383 9.5046323e-13)
(0.33547055 77.501029 -3.4055674e-13)
(0.52777596 76.536348 -2.9051374e-12)
(0.71637828 75.097537 -4.99329e-12)
(0.87868527 73.238074 -6.6301937e-12)
(1.0229016 70.994193 -8.4958736e-12)
(1.1510879 68.399893 -1.1681136e-11)
(1.2549901 65.514723 -1.0226183e-11)
(1.3324699 62.398877 -1.1603558e-11)
(1.3824771 59.110101 -1.0630525e-11)
(0.12793798 76.886829 2.5843232e-12)
(0.33375804 76.454628 6.4014007e-12)
(0.52539688 75.514244 -2.1440218e-13)
(0.71214174 74.111779 -4.1186534e-12)
(0.87600923 72.301435 -6.755844e-12)
(1.0220582 70.14054 -9.4341215e-12)
(1.1491743 67.636352 -1.3248475e-11)
(1.2515758 64.847928 -1.2287473e-11)
(1.3287086 61.834428 -1.3863719e-11)
(1.3797232 58.651574 -1.1856565e-11)
(0.12323355 75.84685 2.8728464e-12)
(0.31956264 75.426755 1.0300046e-11)
(0.49513045 74.513016 9.6275761e-13)
(0.66413911 73.152146 -3.7016196e-12)
(0.91399011 71.398982 -7.5738577e-12)
(1.1169254 69.314391 -1.2338929e-11)
(1.2106921 66.891482 -1.2035794e-11)
(1.2931381 64.192342 -1.2008324e-11)
(1.3588918 61.274452 -1.2342987e-11)
(1.4026591 58.191265 -1.209596e-11)
(0.12083682 74.867264 1.1158458e-12)
(0.31343285 74.462134 2.3252975e-12)
(0.48668028 73.582521 -4.5119847e-13)
(0.65397006 72.277148 -3.9118493e-12)
(0.91864429 70.586084 -7.0555303e-12)
(1.1215902 68.537037 -9.7126292e-12)
(1.2047512 66.181927 -1.0797101e-11)
(1.2884251 63.56135 -1.1335901e-11)
(1.3558131 60.729768 -1.1718672e-11)
(1.4013367 57.738119 -1.1969815e-11)
(0.12355086 73.834101 9.9655562e-12)
(0.32142567 73.442197 2.3458766e-12)
(0.50440198 72.590928 -2.8441709e-12)
(0.68528332 71.326788 -8.3172351e-12)
(0.86413831 69.68604 -8.3114315e-12)
(1.0087306 67.695713 -9.1593393e-12)
(1.1237344 65.419205 -1.0016745e-11)
(1.2285713 62.885761 -1.06383e-11)
(1.3094871 60.146472 -1.1168331e-11)
(1.3659905 57.25022 -1.1615029e-11)
(0.12201132 72.74916 5.4125394e-13)
(0.31655803 72.368581 -4.7567073e-13)
(0.49605836 71.542152 -3.2977432e-12)
(0.68097639 70.313946 -6.3082038e-12)
(0.85100148 68.718455 -7.3071013e-12)
(0.98826222 66.806324 -7.9700588e-12)
(1.1068589 64.615712 -8.0316729e-12)
(1.212146 62.173535 -6.8961997e-12)
(1.294234 59.529426 -9.3619738e-12)
(1.3531599 56.730353 -1.0643072e-11)
(0.11988941 71.681566 -4.7347983e-13)
(0.31185987 71.31309 -1.631901e-12)
(0.490713 70.51387 -3.45158e-12)
(0.67553614 69.325786 -5.3206245e-12)
(0.84405733 67.781614 -6.5669793e-12)
(0.98041789 65.935754 -7.4220271e-12)
(1.099115 63.82169 -7.9758713e-12)
(1.2045024 61.463778 -8.4323191e-12)
(1.2873468 58.909149 -9.7050616e-12)
(1.3478755 56.202486 -1.1031725e-11)
(0.11747525 70.594242 -6.9772113e-13)
(0.30722339 70.237373 -2.1179697e-12)
(0.48509396 69.46354 -3.6490885e-12)
(0.67005743 68.312729 -5.2539133e-12)
(0.83905322 66.815431 -6.8520966e-12)
(0.9765819 65.025751 -8.7345645e-12)
(1.0959921 62.99842 -1.2305629e-11)
(1.2006274 60.730348 -1.3379198e-11)
(1.2835948 58.267427 -1.4011205e-11)
(1.3451461 55.653893 -1.3602346e-11)
(0.11188307 69.521952 3.3031459e-12)
(0.29327177 69.177195 -8.3433743e-12)
(0.46315296 68.430085 -5.1933995e-12)
(0.63252277 67.319018 -5.0189922e-12)
(0.78013959 65.873224 -4.9304196e-12)
(1.0045792 64.148296 -3.5246202e-12)
(1.1884114 62.20024 -6.4005332e-12)
(1.2623584 60.01265 -9.4779373e-12)
(1.3259146 57.633806 -9.9184105e-12)
(1.3770671 55.106832 -1.2272546e-11)
(0.10826124 68.503317 -7.7943578e-13)
(0.28631165 68.17325 -3.5556644e-12)
(0.45532829 67.457506 -4.3793876e-12)
(0.62182325 66.39396 -4.9712609e-12)
(0.77011993 65.014884 -5.7793511e-12)
(1.0105249 63.358098 -7.1588933e-12)
(1.193431 61.447406 -1.0921727e-11)
(1.2574324 59.326571 -1.1632607e-11)
(1.3232845 57.021502 -1.38967e-11)
(1.3771076 54.572264 -1.5140212e-11)
(0.11088002 67.442937 -9.1662875e-13)
(0.29276517 67.125919 -2.6490115e-12)
(0.46635041 66.437278 -4.0115321e-12)
(0.6431515 65.413335 -5.3256257e-12)
(0.80631998 64.083888 -6.947095e-12)
(0.96026672 62.481379 -9.2137069e-12)
(1.0818483 60.630979 -1.2504867e-11)
(1.1783258 58.587194 -1.3551063e-11)
(1.2671857 56.36434 -1.5471381e-11)
(1.3353147 53.999244 -1.5024935e-11)
(0.10958859 66.319119 -7.9061829e-13)
(0.28885823 66.012247 -2.2521118e-12)
(0.45990487 65.346038 -3.7110938e-12)
(0.63376327 64.354544 -5.3557874e-12)
(0.79927093 63.064338 -7.2111503e-12)
(0.94664884 61.506093 -9.3631326e-12)
(1.067813 59.727065 -1.1518123e-11)
(1.1714402 57.778631 -1.2988424e-11)
(1.2602763 55.649381 -1.4250006e-11)
(1.3291602 53.376109 -1.4748497e-11)
(0.10485132 65.232641 4.8984372e-13)
(0.27652038 64.936928 1.447808e-12)
(0.44011323 64.295503 4.5722971e-12)
(0.60310882 63.340963 -8.7867935e-13)
(0.75581281 62.098342 -2.7886328e-12)
(0.88732721 60.596375 -7.678745e-12)
(1.0934268 58.885859 -1.143233e-11)
(1.2626743 57.015972 -1.1951766e-11)
(1.3250416 54.965743 -1.4815112e-11)
(1.3767104 52.773149 -1.4758085e-11)
(0.10269231 64.183996 2.428916e-13)
(0.27141078 63.90088 5.8523732e-13)
(0.43402692 63.286477 1.4645125e-13)
(0.59482924 62.372778 -2.2257289e-12)
(0.74534752 61.184246 -5.0304588e-12)
(0.87992313 59.750727 -9.0260916e-12)
(1.0997128 58.103506 -1.3702476e-11)
(1.2683643 56.263834 -1.3916039e-11)
(1.3237672 54.289812 -1.613835e-11)
(1.3781971 52.175045 -1.4909837e-11)
(0.10159287 63.109731 3.0535861e-12)
(0.26858883 62.838455 9.6663668e-12)
(0.43121697 62.248856 1.6698341e-12)
(0.59240792 61.371421 -2.7123761e-12)
(0.74654889 60.229068 -6.3607458e-12)
(0.88328758 58.849032 -1.0344477e-11)
(1.003452 57.257422 -1.5099467e-11)
(1.1917346 55.480595 -1.5079835e-11)
(1.3400542 53.58667 -1.6667983e-11)
(1.3908582 51.550571 -1.5036129e-11)
(0.10038062 62.040847 6.1599351e-13)
(0.26490981 61.780737 1.3141106e-12)
(0.4246828 61.215655 -9.9474449e-13)
(0.58306618 60.374338 -3.8032964e-12)
(0.73498318 59.278688 -6.6840514e-12)
(0.87221402 57.954265 -9.519217e-12)
(0.99084074 56.42985 -1.1959618e-11)
(1.1922279 54.732258 -1.3110312e-11)
(1.3425145 52.884058 -1.3698655e-11)
(1.3855625 50.922833 -1.3427225e-11)
(0.10083383 60.952686 6.6096566e-12)
(0.26641042 60.702716 3.1408891e-12)
(0.42672892 60.160207 -1.1062762e-12)
(0.5866718 59.352217 -4.0718621e-12)
(0.74211758 58.299104 -6.4767835e-12)
(0.89037294 57.023988 -8.5361034e-12)
(1.0214717 55.553781 -1.0093851e-11)
(1.1382648 53.910267 -1.0891486e-11)
(1.2522908 52.118353 -1.0928051e-11)
(1.3428846 50.239836 -9.818294e-12)
(0.098328112 59.843491 -5.0234349e-14)
(0.25953281 59.603203 -1.817446e-12)
(0.41405964 59.081623 -5.2543691e-12)
(0.56857329 58.304571 -9.3357318e-12)
(0.7171271 57.290544 -8.6086554e-12)
(0.86103067 56.060486 -8.7599175e-12)
(0.98803397 54.639629 -9.286154e-12)
(1.0905844 53.049927 -9.6081621e-12)
(1.2648101 51.331184 -9.5308485e-12)
(1.4071335 49.518671 -9.0539271e-12)
(0.095508265 58.772781 -1.3563916e-12)
(0.25236083 58.542766 -4.1052802e-12)
(0.40262213 58.04356 -7.8429933e-12)
(0.55290812 57.300111 -1.3069656e-11)
(0.69470689 56.32958 -1.0129442e-11)
(0.83257484 55.151956 -9.3026603e-12)
(0.95669379 53.791204 -9.2609192e-12)
(1.0570935 52.27117 -9.4640852e-12)
(1.2071744 50.615724 -9.76746e-12)
(1.408495 48.846067 -1.0292443e-11)
(0.094442385 57.70218 -1.3363696e-12)
(0.24954176 57.482468 -3.8056193e-12)
(0.39831979 57.004761 -6.2616148e-12)
(0.54773551 56.293525 -8.2701075e-12)
(0.688562 55.364978 -8.6050164e-12)
(0.82601049 54.238007 -8.7387417e-12)
(0.95537398 52.934894 -8.9383463e-12)
(1.0635116 51.479101 -9.2133425e-12)
(1.1570226 49.892792 -9.546107e-12)
(1.3213306 48.183314 -9.9242019e-12)
(0.09289493 56.625936 -1.1285703e-12)
(0.24427725 56.415957 -3.1796906e-12)
(0.38975326 55.958448 -5.0690015e-12)
(0.53790302 55.277231 -6.5705843e-12)
(0.67747377 54.387786 -7.5003178e-12)
(0.81279626 53.307094 -8.0982246e-12)
(0.94303844 52.055332 -8.4968977e-12)
(1.0583732 50.654578 -8.8222483e-12)
(1.1540056 49.12561 -9.1121104e-12)
(1.2336901 47.487417 -9.3554256e-12)
(0.090607894 55.556653 -1.0442982e-12)
(0.2373309 55.355389 -2.9593738e-12)
(0.37896459 54.917653 -4.8366139e-12)
(0.52612903 54.265396 -6.6319113e-12)
(0.66428262 53.41336 -8.3849634e-12)
(0.79415142 52.376792 -1.0274622e-11)
(0.91976695 51.173964 -9.4965796e-12)
(1.0344091 49.826297 -9.1850457e-12)
(1.1330567 48.35302 -9.1182433e-12)
(1.2133708 46.773581 -9.1585668e-12)
(0.087356631 54.506314 -9.4998918e-13)
(0.22878825 54.313964 -2.6955978e-12)
(0.36494716 53.896302 -4.408767e-12)
(0.50737918 53.273395 -6.014676e-12)
(0.64060089 52.458873 -7.4244761e-12)
(0.76139921 51.467505 -8.4695967e-12)
(0.87795852 50.316367 -8.8214585e-12)
(0.98719183 49.025483 -9.0718294e-12)
(1.0806692 47.613456 -9.5419041e-12)
(1.1573497 46.097714 -1.0352826e-11)
(0.086190867 53.490122 -8.1182026e-13)
(0.22587501 53.307569 -2.2986236e-12)
(0.35987615 52.910971 -3.7219782e-12)
(0.49916875 52.31931 -4.9801308e-12)
(0.6304479 51.545238 -5.9533248e-12)
(0.7501899 50.603424 -6.4728942e-12)
(0.86579725 49.510048 -6.3138142e-12)
(0.97563909 48.282985 -5.2343369e-12)
(1.0704966 46.941292 -7.3927734e-12)
(1.1496505 45.502513 -8.5845056e-12)
(0.087629272 52.434582 -5.9392046e-13)
(0.22998184 52.260864 -1.6833546e-12)
(0.3668551 51.882894 -2.7419878e-12)
(0.50820509 51.318956 -3.7666253e-12)
(0.64329564 50.581064 -4.6159875e-12)
(0.769657 49.683094 -5.3033084e-12)
(0.88974364 48.639431 -5.7551507e-12)
(1.0054113 47.466143 -6.1265629e-12)
(1.112496 46.18233 -6.8946313e-12)
(1.2057847 44.804815 -7.568599e-12)
(0.08697145 51.346269 7.3273942e-13)
(0.22749352 51.180532 2.2159757e-12)
(0.36205723 50.818345 4.4159654e-12)
(0.50119909 50.278567 2.2805054e-12)
(0.63584609 49.572425 1.8758423e-12)
(0.76232202 48.712543 -1.3571004e-12)
(0.87856065 47.7117 -3.3608684e-12)
(0.99107651 46.585067 -4.3788169e-12)
(1.0989191 45.34928 -4.9129121e-12)
(1.1946583 44.020551 -4.6447695e-12)
(0.085691512 50.270853 6.7181189e-13)
(0.22042272 50.113073 1.8332712e-12)
(0.35100072 49.767166 2.4668809e-12)
(0.4907279 49.252149 1.9973275e-12)
(0.62638055 48.578315 1.2687323e-12)
(0.75333389 47.756981 -1.276139e-14)
(0.86905879 46.800321 -6.7377773e-13)
(0.97912447 45.722365 -2.1419792e-13)
(1.084485 44.537461 -2.6597027e-12)
(1.1813851 43.261625 -4.0679261e-12)
(0.084507836 49.189938 5.488625e-12)
(0.21383995 49.039744 1.6459937e-11)
(0.34023084 48.711275 1.5381951e-11)
(0.47992517 48.220687 1.4323258e-11)
(0.61445627 47.577968 1.0590335e-11)
(0.74023045 46.793328 4.7147305e-12)
(0.85544287 45.878789 1.6239994e-12)
(0.96251506 44.846925 -2.005776e-13)
(1.0652467 43.71109 -1.764611e-12)
(1.1621403 42.485865 -2.9005885e-12)
(0.08445535 48.117034 5.2747674e-12)
(0.2130294 47.97412 1.565927e-11)
(0.33671928 47.662106 1.1698688e-11)
(0.47338212 47.194538 9.4394299e-12)
(0.60434108 46.581313 7.0303566e-12)
(0.72795715 45.832059 4.3280778e-12)
(0.8429951 44.958394 2.0955369e-12)
(0.94933531 43.971444 3.2642982e-13)
(1.0495952 42.88373 -1.1562444e-12)
(1.144866 41.707912 -2.3866743e-12)
(0.08426236 47.050539 1.8616706e-12)
(0.2121577 46.914174 4.9620603e-12)
(0.3324455 46.616666 5.8319585e-12)
(0.46531205 46.170462 5.5889911e-12)
(0.59342624 45.585159 4.7257768e-12)
(0.71666115 44.869953 3.6230165e-12)
(0.83236602 44.035388 2.6502141e-12)
(0.93837622 43.091491 2.086326e-12)
(1.0361696 42.049922 -3.7882711e-14)
(1.1293967 40.922417 -1.6375024e-12)
(0.082950338 45.987626 6.768976e-13)
(0.20967885 45.857554 1.8542499e-12)
(0.32780844 45.573916 2.3124016e-12)
(0.45771865 45.148692 2.1254851e-12)
(0.5844298 44.590616 1.2396125e-12)
(0.70768943 43.908235 -3.9463352e-13)
(0.82328672 43.110772 -3.1887915e-12)
(0.92881036 42.208203 -2.8681318e-12)
(1.0262515 41.211129 -3.5715227e-12)
(1.117211 40.130551 -3.7018906e-12)
(0.081685684 44.927364 -5.6071348e-12)
(0.20731637 44.803551 3.3995036e-12)
(0.32484523 44.533263 -4.1610039e-12)
(0.45320326 44.128068 -2.1933745e-12)
(0.57846633 43.595962 -3.0696667e-12)
(0.69955434 42.944675 -4.1467742e-13)
(0.81390567 42.182575 -9.4247679e-13)
(0.91965839 41.319761 -1.8950585e-12)
(1.0174839 40.365521 -2.6986034e-12)
(1.10698 39.33022 -3.2510174e-12)
(0.080424268 43.869254 2.3963141e-12)
(0.20484071 43.751447 4.6916977e-12)
(0.32168494 43.493946 2.5503533e-12)
(0.44864425 43.107648 8.5302052e-13)
(0.57249269 42.600116 5.4287615e-13)
(0.69104692 41.978433 1.5358273e-12)
(0.80485182 41.250659 1.9986444e-12)
(0.91141487 40.426179 1.3496756e-12)
(1.0092562 39.513395 2.2200768e-13)
(1.0992256 38.521907 -1.6273893e-12)
(0.079310127 42.814323 -6.4696935e-13)
(0.20265234 42.702379 -2.2307926e-12)
(0.31881182 42.45733 -6.6723875e-12)
(0.44433852 42.088617 -4.0853308e-12)
(0.56637575 41.604297 -4.9528551e-12)
(0.68320464 41.010975 -2.0513321e-12)
(0.79696666 40.316269 -1.0116523e-12)
(0.90386636 39.52824 -1.0452596e-12)
(1.0015407 38.655462 -1.5291132e-12)
(1.0919426 37.706444 -2.5164107e-12)
(0.078700957 41.759809 -5.945975e-13)
(0.20149862 41.653481 -1.6714196e-12)
(0.31342728 41.420338 -2.6448394e-12)
(0.43523748 41.068395 -2.8415949e-12)
(0.5571225 40.606229 -2.8380289e-12)
(0.67404596 40.040284 -2.4604636e-12)
(0.78698839 39.377235 -2.2088496e-12)
(0.8942222 38.624294 -2.2384139e-12)
(0.99327622 37.790193 -2.5911561e-12)
(1.0843719 36.882322 -3.1834216e-12)
(0.078244157 40.70023 -4.8086282e-13)
(0.20057381 40.599045 -1.3348111e-12)
(0.30767131 40.377162 -2.0781346e-12)
(0.42481422 40.042788 -2.5753987e-12)
(0.54695718 39.602876 -2.749988e-12)
(0.66469903 39.063826 -3.6947113e-12)
(0.77671118 38.431684 -1.6564835e-12)
(0.88442764 37.713326 -2.2275493e-13)
(0.98496176 36.916552 -1.9052417e-12)
(1.0765524 36.048788 -3.0030955e-12)
(0.077355388 39.639036 -1.1463608e-13)
(0.19869529 39.542759 -3.2900244e-13)
(0.30507278 39.331772 -5.7162979e-13)
(0.42046456 39.01455 -4.7691463e-13)
(0.54129438 38.596524 2.4277831e-13)
(0.65829045 38.083565 7.0119439e-13)
(0.76946021 37.481393 -2.42975e-13)
(0.87625685 36.796584 -1.3694032e-12)
(0.97734261 36.035906 -2.3120818e-12)