/*--------------------------------*- C++ -*----------------------------------*\
  =========                 |
  \\      /  F ield         | OpenFOAM: The Open Source CFD Toolbox
   \\    /   O peration     | Website:  https://openfoam.org
    \\  /    A nd           | Version:  7
     \\/     M anipulation  |
\*---------------------------------------------------------------------------*/
FoamFile
{
    version     2.0;
    format      ascii;
    class       volScalarField;
    location    "80000";
    object      YCH2O;
}
// * * * * * * * * * * * * * * * * * * * * * * * * * * * * * * * * * * * * * //

dimensions      [0 0 0 0 0 0 0];

internalField   nonuniform List<scalar> 
87000
(
1.1163388e-09
1.2550838e-09
1.6106422e-09
2.350458e-09
3.9339999e-09
7.7592914e-09
1.8555677e-08
2.0270282e-08
2.6357654e-07
2.2413149e-05
7.2673417e-09
7.9611913e-09
1.0585577e-08
1.6041694e-08
2.7290663e-08
4.8285659e-08
4.2028129e-08
2.0763235e-08
3.8695023e-06
3.252106e-05
2.3013008e-08
2.5322708e-08
3.3309561e-08
4.8323027e-08
7.0138573e-08
5.4891915e-08
1.6297705e-09
2.2696565e-07
7.8461555e-06
4.0766588e-05
5.4062848e-08
5.9457128e-08
7.4154317e-08
9.2902087e-08
6.5994779e-08
6.1468641e-08
4.6925122e-08
9.6181766e-07
1.2545168e-05
4.7506502e-05
1.0583148e-07
1.1358251e-07
1.2564713e-07
8.1921596e-08
9.0045142e-08
1.1388863e-08
1.9459535e-07
5.8171477e-06
1.745553e-05
5.256363e-05
1.8274451e-07
1.8260151e-07
1.4111612e-07
1.1293037e-07
3.578616e-08
6.3207317e-08
4.9475006e-07
8.4857717e-06
2.2213616e-05
5.6275637e-05
2.8518129e-07
2.3990269e-07
1.4216744e-07
1.152833e-07
1.9175012e-08
1.6249478e-07
1.2816067e-06
1.1410755e-05
2.6654176e-05
5.9155109e-05
4.0265408e-07
2.1935066e-07
1.7667447e-07
2.3046597e-08
7.0856828e-08
4.4799031e-07
2.6294192e-06
1.4472711e-05
3.0740197e-05
6.1558541e-05
5.1216309e-07
2.5336352e-07
1.7324793e-07
2.1050759e-08
1.3900036e-07
6.7695676e-07
9.0181719e-06
1.7568243e-05
3.446576e-05
6.3625683e-05
5.7199094e-07
3.1049004e-07
8.5498647e-08
6.3183205e-08
2.7478384e-07
1.1652771e-06
1.1186706e-05
2.0630271e-05
3.7849955e-05
6.5434888e-05
5.1711644e-07
3.4263543e-07
1.501462e-08
1.2535045e-07
5.9512664e-07
2.2753102e-06
1.3453828e-05
2.3625877e-05
4.0948951e-05
6.7083016e-05
5.9196998e-07
3.1898428e-07
4.4289217e-08
2.0498373e-07
8.0188147e-07
3.4056898e-06
1.5786061e-05
2.6535639e-05
4.3808897e-05
6.8621092e-05
7.0355693e-07
2.1245299e-07
9.565687e-08
3.3946481e-07
1.0585661e-06
4.8074916e-06
1.8163824e-05
2.9360476e-05
4.6481185e-05
7.0089927e-05
8.0971467e-07
1.1318744e-08
1.6765093e-07
5.856688e-07
1.581336e-06
1.3235196e-05
2.05558e-05
3.2087717e-05
4.8983811e-05
7.1495741e-05
8.9256114e-07
3.5691839e-08
2.4234556e-07
9.1835804e-07
2.5300411e-06
1.5194635e-05
2.2945424e-05
3.4709633e-05
5.1327312e-05
7.2833921e-05
9.431934e-07
7.2926425e-08
3.4387303e-07
1.1390705e-06
3.6500469e-06
1.7213593e-05
2.5328322e-05
3.7241189e-05
5.3545522e-05
7.4128826e-05
9.5416779e-07
1.2644634e-07
4.910863e-07
1.3945648e-06
4.7007369e-06
1.9282326e-05
2.7699649e-05
3.9692828e-05
5.5658405e-05
7.5392145e-05
9.1304194e-07
2.0144095e-07
6.7867495e-07
1.6865442e-06
5.9068371e-06
2.1393004e-05
3.0056146e-05
4.2073627e-05
5.7687854e-05
7.6634053e-05
8.1301749e-07
2.9974623e-07
1.0005169e-06
2.1563683e-06
7.2626244e-06
2.3539607e-05
3.2396957e-05
4.4392135e-05
5.9648965e-05
7.7859587e-05
6.4486644e-07
3.8819912e-07
1.4716645e-06
3.0039432e-06
8.7703881e-06
2.5723465e-05
3.4731053e-05
4.6666286e-05
6.1563569e-05
7.9088362e-05
3.9755092e-07
4.8749395e-07
1.7157945e-06
3.989847e-06
2.1269012e-05
2.7923397e-05
3.7043263e-05
4.888914e-05
6.3424784e-05
8.0310179e-05
6.9346685e-08
6.0327708e-07
1.9829203e-06
5.0962288e-06
2.3313527e-05
3.0135191e-05
3.9323397e-05
5.1050625e-05
6.5227595e-05
8.1511209e-05
5.9621858e-08
7.3585568e-07
2.2726377e-06
6.2069885e-06
2.5406015e-05
3.2363687e-05
4.1583785e-05
5.3168266e-05
6.6989604e-05
8.2704615e-05
9.5683776e-08
9.0167831e-07
2.5844593e-06
7.2225919e-06
2.7543601e-05
3.460736e-05
4.3828108e-05
5.5249151e-05
6.871891e-05
8.3896831e-05
1.3841712e-07
1.0898419e-06
2.9174411e-06
8.298741e-06
2.9722816e-05
3.6863946e-05
4.6058122e-05
5.7300483e-05
7.0419683e-05
8.5086635e-05
1.8789002e-07
1.2975693e-06
3.2701591e-06
9.4244242e-06
3.1941016e-05
3.9132482e-05
4.8274922e-05
5.9327269e-05
7.2099933e-05
8.6278765e-05
2.4399137e-07
1.5235347e-06
3.6406943e-06
1.0586213e-05
3.4195354e-05
4.1411653e-05
5.0480662e-05
6.1333278e-05
7.3765141e-05
8.747719e-05
3.0633779e-07
1.7657511e-06
4.0268356e-06
1.1771601e-05
3.6483625e-05
4.3701227e-05
5.2677924e-05
6.331919e-05
7.5418473e-05
8.8683869e-05
3.7456213e-07
2.021992e-06
4.5622676e-06
1.2965747e-05
3.8803625e-05
4.6001028e-05
5.486763e-05
6.5290552e-05
7.7062003e-05
8.9899716e-05
4.4809384e-07
2.2921043e-06
5.2488593e-06
1.4154578e-05
4.1153241e-05
4.8310355e-05
5.705145e-05
6.7250459e-05
7.8696516e-05
9.112518e-05
5.2615623e-07
2.6751707e-06
5.9332022e-06
1.5323017e-05
4.3530477e-05
5.0628804e-05
5.9231908e-05
6.9201909e-05
8.032719e-05
9.2361002e-05
6.0935254e-07
3.0595223e-06
6.6016232e-06
1.6457162e-05
4.5933462e-05
5.2956315e-05
6.1410796e-05
7.114498e-05
8.1957261e-05
9.3607417e-05
6.9608062e-07
3.4379568e-06
7.2409432e-06
1.7544673e-05
4.8360711e-05
5.529253e-05
6.3585588e-05
7.3084369e-05
8.3588581e-05
9.4867324e-05
7.8395344e-07
3.8017467e-06
7.8376041e-06
1.8572563e-05
5.0810363e-05
5.763743e-05
6.5760688e-05
7.5021674e-05
8.5220118e-05
9.6140238e-05
8.7088163e-07
4.1422203e-06
8.378666e-06
1.9529053e-05
5.3280536e-05
5.9991814e-05
6.7937923e-05
7.6958702e-05
8.6855293e-05
9.7427303e-05
9.5536569e-07
4.4523442e-06
8.8537339e-06
2.0405461e-05
5.5769057e-05
6.2354715e-05
7.01173e-05
7.8893626e-05
8.8497228e-05
9.8730764e-05
1.0373111e-06
4.7254722e-06
9.2525139e-06
2.1195072e-05
5.8276005e-05
6.4725222e-05
7.2298329e-05
8.0831172e-05
9.0145477e-05
0.00010004935
1.1164457e-06
4.9554637e-06
9.5651232e-06
2.1888845e-05
6.0799617e-05
6.7104639e-05
7.4482318e-05
8.2772618e-05
9.1800878e-05
0.00010138309
1.191617e-06
5.1368409e-06
9.7850643e-06
2.2482885e-05
6.3336627e-05
6.9491297e-05
7.6671562e-05
8.4719708e-05
9.3464009e-05
0.00010273371
1.2611279e-06
5.2650096e-06
9.9082089e-06
2.2979684e-05
6.5887801e-05
7.1884267e-05
7.8863218e-05
8.6669581e-05
9.5137221e-05
0.00010410099
1.3232845e-06
5.3384012e-06
9.9327351e-06
2.3373436e-05
6.8451708e-05
7.4285453e-05
8.1060436e-05
8.8624056e-05
9.6819245e-05
0.00010548417
1.3787475e-06
5.3567009e-06
9.8568463e-06
2.3663511e-05
7.1024728e-05
7.6693604e-05
8.3263318e-05
9.058591e-05
9.8511765e-05
0.00010688505
1.426733e-06
5.3147969e-06
9.7923365e-06
2.3853792e-05
7.3607165e-05
7.9104321e-05
8.5467757e-05
9.255313e-05
0.00010021234
0.0001083011
1.4649712e-06
5.2105127e-06
1.0077025e-05
2.3937454e-05
7.6196245e-05
8.1518807e-05
8.767356e-05
9.4522779e-05
0.00010192003
0.00010973059
1.4910422e-06
5.2481205e-06
1.0339229e-05
2.3887805e-05
7.8784713e-05
8.3921978e-05
8.9866262e-05
9.6480808e-05
0.00010362247
0.00011116083
1.5012385e-06
5.2433946e-06
1.0563155e-05
2.3832311e-05
3.6573695e-05
8.6352596e-05
9.2077864e-05
9.8451692e-05
0.00010533894
0.0001126091
1.511622e-06
5.2402018e-06
1.0802149e-05
2.3792683e-05
3.6254895e-05
8.8796195e-05
9.4312545e-05
0.00010045272
0.00010708883
0.00011409359
1.522546e-06
5.2297232e-06
1.1032506e-05
2.3050358e-05
3.5739535e-05
9.1238568e-05
9.6550845e-05
0.00010246238
0.00010885118
0.00011559824
1.5264559e-06
5.1994608e-06
1.1249119e-05
2.2039176e-05
3.5095708e-05
9.3678557e-05
9.8789243e-05
0.00010447673
0.00011062334
0.0001171178
1.522385e-06
5.1493063e-06
1.1450198e-05
2.0884996e-05
3.434608e-05
9.6115163e-05
0.0001010258
0.00010649173
0.00011240179
0.00011865031
1.506891e-06
5.0749024e-06
1.1634387e-05
1.9594216e-05
3.3464739e-05
9.8542989e-05
0.00010324765
0.00010849397
0.00011417307
0.00012018061
1.4800849e-06
4.9672914e-06
1.1792565e-05
1.8028671e-05
3.2650378e-05
4.4874355e-05
0.000105496
0.00011051598
0.00011596043
0.00012172974
1.453873e-06
4.8598456e-06
1.1954418e-05
1.665607e-05
3.1898034e-05
4.3636115e-05
0.00010774842
0.00011255744
0.00011777539
0.00012331085
1.4287105e-06
4.7521541e-06
1.2115204e-05
1.5266364e-05
3.1032215e-05
4.2195985e-05
0.00010998965
0.00011459475
0.00011959446
0.00012490133
1.3965788e-06
4.6681832e-06
1.2267066e-05
1.4913034e-05
2.9458677e-05
4.0616473e-05
0.00011221794
0.0001166165
0.00012140115
0.00012648534
1.3536234e-06
4.5905824e-06
1.2400498e-05
1.4913004e-05
2.6913074e-05
3.9169464e-05
5.0167279e-05
0.00011866474
0.00012322697
0.00012808707
1.3062609e-06
4.509334e-06
1.1408629e-05
1.4923913e-05
2.4661696e-05
3.778277e-05
4.819794e-05
0.00012070611
0.00012505774
0.00012970257
1.2559863e-06
4.424417e-06
1.024554e-05
1.4925408e-05
2.2288843e-05
3.6123293e-05
4.627359e-05
5.6579518e-05
0.00012691515
0.00013134059
1.2052727e-06
4.3395449e-06
9.096123e-06
1.4930786e-05
2.0033529e-05
3.466783e-05
4.4401616e-05
5.4153533e-05
0.00012876566
0.00013299034
1.1533894e-06
4.2551153e-06
8.4254148e-06
1.4938531e-05
1.780989e-05
3.1623159e-05
4.2346493e-05
5.1548809e-05
0.00013060109
0.0001346364
1.0957861e-06
4.1667229e-06
8.0116744e-06
1.4939031e-05
1.7349833e-05
2.8470227e-05
4.017226e-05
4.9090022e-05
5.756823e-05
0.00013629824
1.0328968e-06
4.0741447e-06
7.5922804e-06
1.4934972e-05
1.7194986e-05
2.5369852e-05
3.8105442e-05
4.6442588e-05
5.4875507e-05
6.2579535e-05
9.6700837e-07
3.9688784e-06
7.1784547e-06
1.4932379e-05
1.7048511e-05
2.2395503e-05
3.4734881e-05
4.3977829e-05
5.1921364e-05
5.9505758e-05
8.978235e-07
3.6863293e-06
6.7734735e-06
1.4242515e-05
1.6910171e-05
1.9509283e-05
3.1011013e-05
4.1545712e-05
4.8917386e-05
5.6123899e-05
8.2398013e-07
3.4066571e-06
6.3799553e-06
1.2414736e-05
1.677962e-05
1.8923172e-05
2.7421992e-05
3.8589621e-05
4.6082305e-05
5.2802396e-05
7.44133e-07
3.1246473e-06
6.0346351e-06
1.060444e-05
1.6647823e-05
1.8637657e-05
2.3859568e-05
3.4185986e-05
4.3244605e-05
4.9425842e-05
6.6148533e-07
2.8433719e-06
5.7589135e-06
9.5779665e-06
1.6516788e-05
1.8356755e-05
2.0379081e-05
2.9910542e-05
3.9474034e-05
4.6245987e-05
5.7994761e-07
2.5726962e-06
5.4962773e-06
8.8919817e-06
1.6401532e-05
1.8102551e-05
1.9976544e-05
2.5962613e-05
3.4850174e-05
4.3401488e-05
5.0065547e-07
2.3170146e-06
5.2498009e-06
8.2501639e-06
1.4685457e-05
1.7875734e-05
1.9615203e-05
2.2308794e-05
3.0606976e-05
3.873685e-05
4.2398496e-07
2.0902465e-06
5.0227466e-06
7.658836e-06
1.2474578e-05
1.7679537e-05
1.9291843e-05
2.1005033e-05
2.6673541e-05
3.4294906e-05
4.1522271e-07
1.8805594e-06
4.8154398e-06
7.1142743e-06
1.0715654e-05
1.7508814e-05
1.9003559e-05
2.0599234e-05
2.2999557e-05
3.0149117e-05
1.0113956e-06
1.6870001e-06
4.5735346e-06
6.6642423e-06
9.9266751e-06
1.6900329e-05
1.8746247e-05
2.0230632e-05
2.1764058e-05
2.6246758e-05
1.5683718e-06
1.5057305e-06
4.1398156e-06
6.3249149e-06
9.1962362e-06
1.4470127e-05
1.8517387e-05
1.9893877e-05
2.132575e-05
2.2767762e-05
2.0915182e-06
1.3361791e-06
3.7365391e-06
6.0111382e-06
8.5192374e-06
1.2203762e-05
1.831283e-05
1.9589479e-05
2.0921118e-05
2.2271637e-05
2.5820342e-06
1.177739e-06
3.3617379e-06
5.7213492e-06
7.8882198e-06
1.0921348e-05
1.7386158e-05
1.9312825e-05
2.0550967e-05
2.1810981e-05
3.0427211e-06
1.0294273e-06
3.0123257e-06
5.4523893e-06
7.2996919e-06
1.0089848e-05
1.4824063e-05
1.9064197e-05
2.0211921e-05
2.1385578e-05
3.4743632e-06
8.9087586e-07
2.6872695e-06
5.2031332e-06
6.8842001e-06
9.3156183e-06
1.2429584e-05
1.8839804e-05
1.9902983e-05
2.0995112e-05
3.8838919e-06
7.5932643e-07
2.3951729e-06
4.8788205e-06
6.5123092e-06
8.5946252e-06
1.1230343e-05
1.6326017e-05
1.962357e-05
2.0637861e-05
4.2795013e-06
6.3393439e-07
2.1246582e-06
4.3766289e-06
6.168274e-06
7.9250266e-06
1.0347122e-05
1.3749214e-05
1.9371796e-05
2.0312841e-05
4.6557337e-06
5.1584227e-07
1.8730215e-06
3.9112697e-06
5.8507489e-06
7.3733298e-06
9.5270312e-06
1.1934144e-05
1.6812198e-05
2.0019442e-05
5.0082015e-06
4.7509204e-07
1.6404609e-06
3.4814588e-06
5.5584229e-06
6.9508789e-06
8.7676312e-06
1.0982468e-05
1.4156026e-05
1.9339135e-05
5.3315969e-06
1.2559836e-06
1.4263528e-06
3.0851564e-06
5.2890154e-06
6.5622775e-06
8.0661754e-06
1.0101597e-05
1.2254517e-05
1.6481686e-05
5.6277796e-06
1.9670582e-06
1.2287928e-06
2.7228857e-06
4.7263289e-06
6.2054621e-06
7.5219873e-06
9.2883438e-06
1.1273055e-05
1.3833643e-05
5.904831e-06
2.6204304e-06
1.0443012e-06
2.4000276e-06
4.207842e-06
5.8796449e-06
7.0840333e-06
8.5401811e-06
1.0367537e-05
1.2269637e-05
6.1626203e-06
3.2202495e-06
8.7353302e-07
2.1040848e-06
3.7341121e-06
5.5826435e-06
6.6838661e-06
7.8935756e-06
9.5341554e-06
1.1292476e-05
6.3951204e-06
3.7602285e-06
7.1796758e-07
1.8350713e-06
3.3015715e-06
5.1104388e-06
6.3187e-06
7.4278243e-06
8.7698637e-06
1.0393216e-05
6.5996821e-06
4.2404693e-06
5.7701199e-07
1.5910507e-06
2.9075946e-06
4.5561128e-06
5.986387e-06
7.0033576e-06
8.0974676e-06
9.5680345e-06
6.7785836e-06
4.6662484e-06
4.4948821e-07
1.3676472e-06
2.5631072e-06
4.0500022e-06
5.6861978e-06
6.6178902e-06
7.6233899e-06
8.8125394e-06
6.9319631e-06
5.0406833e-06
1.2630016e-06
1.1644087e-06
2.2507411e-06
3.5909117e-06
5.1609959e-06
6.2683064e-06
7.1931583e-06
8.1747588e-06
7.0552058e-06
5.3614409e-06
1.980212e-06
9.8176513e-07
1.9696891e-06
3.1754105e-06
4.6123363e-06
5.9524509e-06
6.8032657e-06
7.7090935e-06
7.1481388e-06
5.6306995e-06
2.6030362e-06
8.1915542e-07
1.7165438e-06
2.8090066e-06
4.1148667e-06
5.5750238e-06
6.451197e-06
7.2874181e-06
7.2115753e-06
5.851861e-06
3.140074e-06
6.7434074e-07
1.4887083e-06
2.4853801e-06
3.6657386e-06
5.0085749e-06
6.1343392e-06
6.9071747e-06
7.2435928e-06
6.024871e-06
3.5949881e-06
5.4646232e-07
1.2862324e-06
2.1968658e-06
3.2635003e-06
4.4991834e-06
5.8443215e-06
6.5651946e-06
7.2409926e-06
6.1476212e-06
3.9672778e-06
7.4201773e-07
1.1091674e-06
1.9406433e-06
2.9118977e-06
4.0406458e-06
5.2827398e-06
6.2586906e-06
7.2020493e-06
6.2200903e-06
4.2606447e-06
1.3610558e-06
9.5475064e-07
1.7132668e-06
2.6047216e-06
3.6310701e-06
4.7813457e-06
5.9859596e-06
7.1245272e-06
6.2414862e-06
4.4783082e-06
1.8691306e-06
8.2175961e-07
1.5150615e-06
2.3352946e-06
3.2695676e-06
4.3345065e-06
5.4833878e-06
7.0061587e-06
6.2108005e-06
4.6217076e-06
2.2696805e-06
7.100479e-07
1.3455466e-06
2.0998302e-06
2.9590608e-06
3.9376714e-06
5.0078727e-06
6.844786e-06
6.1271961e-06
4.6926397e-06
2.5686706e-06
6.1837174e-07
1.2022719e-06
1.896459e-06
2.6920904e-06
3.590576e-06
4.5890315e-06
6.6368626e-06
5.9881653e-06
4.6905936e-06
2.7685778e-06
5.4650592e-07
1.0845818e-06
1.7252831e-06
2.4641711e-06
3.2905717e-06
4.2231582e-06
6.3776632e-06
5.7898352e-06
4.6132742e-06
2.8693394e-06
5.7120945e-07
9.9257223e-07
1.5860926e-06
2.2723519e-06
3.0418572e-06
3.907357e-06
6.0646888e-06
5.5305523e-06
4.4607975e-06
2.8736043e-06
7.8042286e-07
9.2500542e-07
1.4763755e-06
2.1150133e-06
2.8352851e-06
3.6401365e-06
5.694732e-06
5.2081824e-06
4.23323e-06
2.7854869e-06
8.7457181e-07
8.8126043e-07
1.3956598e-06
1.9924998e-06
2.6694325e-06
3.4206749e-06
5.2624479e-06
4.817841e-06
3.9264277e-06
2.6015816e-06
8.5125661e-07
8.6264694e-07
1.3447434e-06
1.9049587e-06
2.5424519e-06
3.2492405e-06
4.7649078e-06
4.3573718e-06
3.5398506e-06
2.3238613e-06
7.1566424e-07
8.6904538e-07
1.3228993e-06
1.8509571e-06
2.4528369e-06
3.1230709e-06
4.1995993e-06
3.8249185e-06
3.0729225e-06
1.9535057e-06
5.4311766e-07
9.0100244e-07
1.3302116e-06
1.8301394e-06
2.4008083e-06
3.038949e-06
3.5647425e-06
3.2192394e-06
2.5254682e-06
1.4915901e-06
6.1943531e-07
9.5928153e-07
1.3670339e-06
1.842544e-06
2.3860919e-06
2.9958931e-06
2.8605932e-06
2.5411071e-06
1.8992834e-06
9.4151046e-07
7.2024044e-07
1.044481e-06
1.4336843e-06
1.8880551e-06
2.4080781e-06
2.9928527e-06
2.090291e-06
1.7941877e-06
1.1988811e-06
5.9804977e-07
8.4642399e-07
1.1571515e-06
1.5303174e-06
1.9663817e-06
2.4659794e-06
3.0286005e-06
1.2598336e-06
9.8478213e-07
5.8042001e-07
7.5952454e-07
9.9851204e-07
1.297433e-06
1.6566838e-06
2.0768238e-06
2.5585999e-06
3.1014996e-06
6.0033845e-07
6.574164e-07
7.7267008e-07
9.4558025e-07
1.1761867e-06
1.4647943e-06
1.8118581e-06
2.2180114e-06
2.6840726e-06
3.2091871e-06
8.2104902e-07
8.7631151e-07
9.8783536e-07
1.1551139e-06
1.3783223e-06
1.6577939e-06
1.9940262e-06
2.3876887e-06
2.8396183e-06
3.3483583e-06
1.0622692e-06
1.115824e-06
1.2239383e-06
1.3861656e-06
1.6026947e-06
1.8738817e-06
2.2002289e-06
2.5824088e-06
3.0212506e-06
3.5144111e-06
1.3207987e-06
1.3727815e-06
1.4777429e-06
1.6352613e-06
1.8455314e-06
2.1089019e-06
2.4258705e-06
2.7970898e-06
3.2230949e-06
3.7017345e-06
1.5916344e-06
1.6420859e-06
1.7439586e-06
1.8968438e-06
2.1009273e-06
2.356538e-06
2.6641386e-06
3.0243466e-06
3.436764e-06
3.902704e-06
1.8674368e-06
1.9163156e-06
2.0150014e-06
2.1630923e-06
2.3607497e-06
2.608264e-06
2.9060564e-06
3.2546211e-06
3.6524738e-06
4.1044371e-06
2.138426e-06
2.1856192e-06
2.2808726e-06
2.4238031e-06
2.614531e-06
2.8532976e-06
3.140422e-06
3.4759867e-06
3.8594392e-06
4.2939287e-06
2.3924107e-06
2.437746e-06
2.5292014e-06
2.6663826e-06
2.849372e-06
3.0783317e-06
3.3534898e-06
3.6743424e-06
4.0426137e-06
4.4568449e-06
2.6151314e-06
2.6583707e-06
2.7455304e-06
2.8762207e-06
3.0504741e-06
3.2683849e-06
3.530154e-06
3.8347555e-06
4.1850775e-06
4.5774466e-06
2.791312e-06
2.8321985e-06
2.9145432e-06
3.0379959e-06
3.2025232e-06
3.4081399e-06
3.6548243e-06
3.9417931e-06
4.2711914e-06
4.6399628e-06
2.906099e-06
2.9444044e-06
3.0214422e-06
3.1368556e-06
3.2905899e-06
3.4825938e-06
3.7128052e-06
3.9803241e-06
4.287167e-06
4.6307466e-06
2.9465388e-06
2.9820423e-06
3.0533395e-06
3.1601039e-06
3.3022526e-06
3.4796878e-06
3.6924076e-06
3.9399784e-06
4.2226805e-06
4.5396863e-06
2.9038404e-06
2.9364095e-06
3.0017059e-06
3.0994437e-06
3.2295949e-06
3.3922346e-06
3.5870511e-06
3.8138878e-06
4.0723214e-06
4.3617985e-06
2.7752687e-06
2.8049322e-06
2.8643752e-06
2.9533377e-06
3.0717441e-06
3.2194923e-06
3.3964573e-06
3.6024937e-06
3.8374384e-06
4.1010709e-06
2.5654166e-06
2.5922577e-06
2.6458973e-06
2.7262394e-06
2.8331852e-06
2.966661e-06
3.1265759e-06
3.3128266e-06
3.5253006e-06
3.7638808e-06
2.2846158e-06
2.3088145e-06
2.3571084e-06
2.4293802e-06
2.5256092e-06
2.6458781e-06
2.7901335e-06
2.9582859e-06
3.1503039e-06
3.3661656e-06
1.9485125e-06
1.9703368e-06
2.0138505e-06
2.0789879e-06
2.1657687e-06
2.2742063e-06
2.4043166e-06
2.5562472e-06
2.7302116e-06
2.9260965e-06
1.5752543e-06
1.5950143e-06
1.6343941e-06
1.6933706e-06
1.772005e-06
1.8703645e-06
1.9885319e-06
2.1266121e-06
2.2847368e-06
2.4630707e-06
1.1828028e-06
1.2006473e-06
1.2363641e-06
1.2901629e-06
1.361955e-06
1.4518546e-06
1.5600041e-06
1.6865807e-06
1.8318013e-06
1.9959278e-06
8.488958e-07
8.3702154e-07
8.3745244e-07
8.864503e-07
9.518466e-07
1.0337541e-06
1.133244e-06
1.2498184e-06
1.3837218e-06
1.5357076e-06
1.1483244e-06
1.1391525e-06
1.1209563e-06
1.0938898e-06
1.0581432e-06
1.0139763e-06
9.6171562e-07
9.0174117e-07
9.5325925e-07
1.0946836e-06
1.3454714e-06
1.3384495e-06
1.3244531e-06
1.3036229e-06
1.2761135e-06
1.2421334e-06
1.2019435e-06
1.1558572e-06
1.1042489e-06
1.0475436e-06
1.4566042e-06
1.4512205e-06
1.4404935e-06
1.4247153e-06
1.4038916e-06
1.378201e-06
1.3478677e-06
1.3132098e-06
1.2751149e-06
1.2333998e-06
1.5015885e-06
1.4976527e-06
1.4896952e-06
1.4778347e-06
1.4624999e-06
1.4436612e-06
1.421431e-06
1.396458e-06
1.3690951e-06
1.3393281e-06
1.4969506e-06
1.4943148e-06
1.4889422e-06
1.4809392e-06
1.470402e-06
1.4574543e-06
1.4422522e-06
1.4249858e-06
1.4058819e-06
1.3852001e-06
1.4574093e-06
1.4557948e-06
1.4524492e-06
1.4474726e-06
1.4409551e-06
1.4330124e-06
1.4237897e-06
1.4134652e-06
1.4022526e-06
1.3904006e-06
1.3957843e-06
1.3949969e-06
1.3932999e-06
1.3907772e-06
1.3875016e-06
1.3835654e-06
1.3794081e-06
1.3750558e-06
1.3706438e-06
1.3664167e-06
1.3212417e-06
1.3212162e-06
1.3210512e-06
1.320823e-06
1.3206021e-06
1.3204782e-06
1.3205647e-06
1.3210018e-06
1.3219831e-06
1.3244011e-06
1.2410697e-06
1.2417038e-06
1.2428745e-06
1.2446499e-06
1.2470998e-06
1.2503132e-06
1.2544036e-06
1.2595118e-06
1.2658092e-06
1.2735074e-06
1.1605962e-06
1.1617772e-06
1.1641208e-06
1.167661e-06
1.1724661e-06
1.1786267e-06
1.1862584e-06
1.1955055e-06
1.206544e-06
1.219594e-06
1.0866164e-06
1.0881588e-06
1.0911619e-06
1.0956771e-06
1.1017628e-06
1.1094938e-06
1.1198724e-06
1.1328211e-06
1.1481093e-06
1.1659688e-06
1.0195316e-06
1.0215235e-06
1.0254555e-06
1.031371e-06
1.0393306e-06
1.049413e-06
1.0617196e-06
1.0763768e-06
1.0939579e-06
1.1150882e-06
9.598922e-07
9.6228832e-07
9.6706161e-07
9.7424818e-07
9.8391159e-07
9.9613653e-07
1.0110323e-06
1.028736e-06
1.0494156e-06
1.0734769e-06
9.0767676e-07
9.1043951e-07
9.1598095e-07
9.2433058e-07
9.3555644e-07
9.4975086e-07
9.6703352e-07
9.8755448e-07
1.0114976e-06
1.0391006e-06
8.6670306e-07
8.6963733e-07
8.7552361e-07
8.8439249e-07
8.963151e-07
9.1138771e-07
9.297346e-07
9.522754e-07
9.7926545e-07
1.0103666e-06
8.3933411e-07
8.421114e-07
8.4771558e-07
8.5616926e-07
8.6852963e-07
8.8532313e-07
9.0576506e-07
9.300267e-07
9.5831628e-07
9.9090157e-07
8.1787009e-07
8.2094238e-07
8.2717336e-07
8.3658045e-07
8.4923826e-07
8.6525074e-07
8.870726e-07
9.137064e-07
9.4476985e-07
9.8055818e-07
8.0800974e-07
8.1120027e-07
8.1766872e-07
8.2743322e-07
8.4057034e-07
8.5718648e-07
8.7741859e-07
9.0343152e-07
9.3548428e-07
9.7337055e-07
8.0389749e-07
8.0736928e-07
8.1443785e-07
8.2511736e-07
8.3949259e-07
8.5768255e-07
8.7984069e-07
9.0615673e-07
9.3928595e-07
9.7928085e-07
8.0613579e-07
8.0970945e-07
8.1698259e-07
8.2797067e-07
8.4276031e-07
8.6147229e-07
8.8426216e-07
9.1205118e-07
9.4538005e-07
9.8742733e-07
8.1650082e-07
8.2035281e-07
8.2822318e-07
8.4012605e-07
8.5615696e-07
8.764514e-07
9.0118382e-07
9.3056931e-07
9.6486541e-07
1.0048406e-06
8.1292535e-07
8.2159516e-07
8.3928079e-07
8.5418799e-07
8.7061362e-07
8.9140602e-07
9.1699969e-07
9.486428e-07
9.8560561e-07
1.0282475e-06
8.084815e-07
8.1745682e-07
8.3579694e-07
8.6370102e-07
8.9556934e-07
9.1799411e-07
9.4532933e-07
9.7781705e-07
1.0157465e-06
1.0594781e-06
8.0596219e-07
8.1508793e-07
8.3372949e-07
8.6207856e-07
9.0057698e-07
9.4340106e-07
9.7135739e-07
1.0050953e-06
1.0457525e-06
1.092667e-06
8.0883755e-07
8.1843681e-07
8.3787983e-07
8.674727e-07
9.0770562e-07
9.5922493e-07
1.008832e-06
1.0445197e-06
1.0861715e-06
1.1342009e-06
8.1193081e-07
8.2217993e-07
8.431724e-07
8.7392361e-07
9.1510745e-07
9.6782613e-07
1.0328511e-06
1.0813182e-06
1.1238368e-06
1.17342e-06
8.1579607e-07
8.2634667e-07
8.4797372e-07
8.810001e-07
9.2442075e-07
9.7920032e-07
1.0468642e-06
1.1243434e-06
1.1692518e-06
1.2209586e-06
8.2320562e-07
8.3408076e-07
8.5637797e-07
8.9042773e-07
9.3692561e-07
9.9390718e-07
1.0640616e-06
1.1485714e-06
1.2184294e-06
1.2723707e-06
8.3256945e-07
8.437344e-07
8.6660935e-07
9.0151782e-07
9.492815e-07
1.0100422e-06
1.0827518e-06
1.1704222e-06
1.2706464e-06
1.3268018e-06
8.4353287e-07
8.5509435e-07
8.7878453e-07
9.149345e-07
9.6425128e-07
1.0276953e-06
1.1031244e-06
1.1932967e-06
1.3007356e-06
1.3837727e-06
8.5512565e-07
8.6709812e-07
8.9163214e-07
9.2906579e-07
9.801252e-07
1.0457972e-06
1.1257252e-06
1.21902e-06
1.3293591e-06
1.443133e-06
8.6702878e-07
8.7942008e-07
9.0481345e-07
9.4355352e-07
9.9638482e-07
1.06432e-06
1.1486346e-06
1.2453748e-06
1.3595973e-06
1.4927258e-06
8.800503e-07
8.9281569e-07
9.189572e-07
9.5881129e-07
1.0131137e-06
1.0828737e-06
1.169956e-06
1.2717487e-06
1.3896913e-06
1.5271899e-06
8.9369196e-07
9.0690707e-07
9.3396938e-07
9.7522028e-07
1.0314118e-06
1.1035661e-06
1.192969e-06
1.299221e-06
1.4199164e-06
1.561071e-06
9.0706317e-07
9.2071764e-07
9.4867865e-07
9.9129043e-07
1.0493177e-06
1.1237996e-06
1.2160456e-06
1.3275931e-06
1.4520027e-06
1.5968972e-06
9.2116729e-07
9.352055e-07
9.6393394e-07
1.0076868e-06
1.0672175e-06
1.1435501e-06
1.238281e-06
1.3530522e-06
1.4829544e-06
1.6318028e-06
9.3560626e-07
9.5008264e-07
9.7970546e-07
1.0248082e-06
1.0861514e-06
1.1647679e-06
1.2619553e-06
1.3792659e-06
1.5139155e-06
1.6655887e-06
9.4943367e-07
9.6432502e-07
9.9479376e-07
1.0411697e-06
1.1042154e-06
1.1849651e-06
1.2847167e-06
1.4050236e-06
1.5451325e-06
1.7005722e-06
9.6465559e-07
9.7990899e-07
1.0111004e-06
1.0585463e-06
1.122993e-06
1.2054529e-06
1.3071955e-06
1.429744e-06
1.5745371e-06
1.733406e-06
9.7921899e-07
9.9486135e-07
1.0268437e-06
1.0754744e-06
1.141494e-06
1.2259065e-06
1.329968e-06
1.4551819e-06
1.6032684e-06
1.7663135e-06
9.9435458e-07
1.0103189e-06
1.0429424e-06
1.0925183e-06
1.1597683e-06
1.2456702e-06
1.3514483e-06
1.4788975e-06
1.6296394e-06
1.7977614e-06
1.0095883e-06
1.0259053e-06
1.0592444e-06
1.1098864e-06
1.1785404e-06
1.2661666e-06
1.3739635e-06
1.5033595e-06
1.65599e-06
1.8282147e-06
1.0249153e-06
1.0415113e-06
1.0754044e-06
1.1268586e-06
1.1965614e-06
1.285444e-06
1.3949053e-06
1.5263116e-06
1.6811101e-06
1.8576529e-06
1.0407648e-06
1.057669e-06
1.0921859e-06
1.1445634e-06
1.2154705e-06
1.3058119e-06
1.4167136e-06
1.5495122e-06
1.7057413e-06
1.885553e-06
1.0565078e-06
1.0736456e-06
1.1086243e-06
1.1616743e-06
1.2334407e-06
1.3247978e-06
1.4371473e-06
1.571549e-06
1.7294493e-06
1.9125504e-06
1.0729046e-06
1.0903013e-06
1.1258026e-06
1.1796202e-06
1.2523763e-06
1.3449125e-06
1.4582723e-06
1.5936906e-06
1.7525821e-06
1.9365945e-06
1.0892086e-06
1.1067912e-06
1.1426579e-06
1.1970021e-06
1.2704208e-06
1.3637222e-06
1.4780267e-06
1.614545e-06
1.7745097e-06
1.9594919e-06
1.1057017e-06
1.1234789e-06
1.1597348e-06
1.2146429e-06
1.2887742e-06
1.3829009e-06
1.4979861e-06
1.6352902e-06
1.7959624e-06
1.9814967e-06
1.122653e-06
1.1405858e-06
1.1771494e-06
1.2324973e-06
1.307173e-06
1.4019115e-06
1.5176232e-06
1.6554559e-06
1.8166164e-06
2.0024173e-06
1.1399111e-06
1.1579783e-06
1.1948067e-06
1.250528e-06
1.3256553e-06
1.4208817e-06
1.5370622e-06
1.6751986e-06
1.8364234e-06
2.0220659e-06
1.1572071e-06
1.1753579e-06
1.2123447e-06
1.2682807e-06
1.3436516e-06
1.4391148e-06
1.5554805e-06
1.6936985e-06
1.8548531e-06
2.04015e-06
1.1740719e-06
1.1923067e-06
1.2294548e-06
1.2856056e-06
1.3612094e-06
1.4568733e-06
1.573341e-06
1.7114757e-06
1.8722427e-06
2.0567599e-06
1.1913115e-06
1.209577e-06
1.2467758e-06
1.3029773e-06
1.3786018e-06
1.4742171e-06
1.5905183e-06
1.728311e-06
1.888494e-06
2.0721168e-06
1.208043e-06
1.226321e-06
1.2635341e-06
1.3197331e-06
1.3953087e-06
1.4907587e-06
1.6067053e-06
1.7438489e-06
1.9029515e-06
2.0848796e-06
1.2243634e-06
1.2426272e-06
1.2797971e-06
1.3358964e-06
1.4112721e-06
1.5063897e-06
1.621808e-06
1.7581605e-06
1.9161327e-06
2.0965047e-06
1.2402815e-06
1.2585121e-06
1.2956024e-06
1.3515529e-06
1.4266768e-06
1.521395e-06
1.636213e-06
1.7717051e-06
1.9279703e-06
2.1058044e-06
1.2553979e-06
1.273544e-06
1.310443e-06
1.3660696e-06
1.4406905e-06
1.5346563e-06
1.6483717e-06
1.7822685e-06
1.9367717e-06
2.1123288e-06
1.2690562e-06
1.2871362e-06
1.3238865e-06
1.3792531e-06
1.4534588e-06
1.5467966e-06
1.6596014e-06
1.7922227e-06
1.9449947e-06
2.1182677e-06
1.2691966e-06
1.3004175e-06
1.3369964e-06
1.3920699e-06
1.4658207e-06
1.5583833e-06
1.6695965e-06
1.8000647e-06
1.9499145e-06
2.1192065e-06
1.2475403e-06
1.3108107e-06
1.3470184e-06
1.4014906e-06
1.4743545e-06
1.5657645e-06
1.6758636e-06
1.8047469e-06
1.9524194e-06
2.1188066e-06
1.2242574e-06
1.2913807e-06
1.3557002e-06
1.4098567e-06
1.4822073e-06
1.5728376e-06
1.6818028e-06
1.8090969e-06
1.9546131e-06
2.1175654e-06
1.2008081e-06
1.2683792e-06
1.364167e-06
1.4177188e-06
1.488802e-06
1.5777432e-06
1.6844927e-06
1.8088822e-06
1.9505648e-06
2.1090022e-06
1.1709622e-06
1.2387938e-06
1.3655607e-06
1.4185954e-06
1.4892728e-06
1.5775209e-06
1.6831718e-06
1.8059197e-06
1.9452644e-06
2.1005004e-06
1.1403418e-06
1.2085828e-06
1.3454409e-06
1.4193361e-06
1.4895927e-06
1.5771358e-06
1.6816909e-06
1.802825e-06
1.9398987e-06
2.0885648e-06
1.1098162e-06
1.1783253e-06
1.3147163e-06
1.4169902e-06
1.4847246e-06
1.5691484e-06
1.6699503e-06
1.7865729e-06
1.9181304e-06
2.0633514e-06
1.0611606e-06
1.1291031e-06
1.2649682e-06
1.3964682e-06
1.4646011e-06
1.5492384e-06
1.6498954e-06
1.7658091e-06
1.8958651e-06
2.038545e-06
1.0132778e-06
1.0810119e-06
1.2163743e-06
1.3760077e-06
1.4445153e-06
1.529355e-06
1.6298791e-06
1.7451329e-06
1.8737894e-06
2.0141e-06
9.6645913e-07
1.0339891e-06
1.1688629e-06
1.3556162e-06
1.4244714e-06
1.5094988e-06
1.6098965e-06
1.7245311e-06
1.8518774e-06
1.9899724e-06
9.2062922e-07
9.8796353e-07
1.1223616e-06
1.3194936e-06
1.4044852e-06
1.489692e-06
1.5899718e-06
1.7040279e-06
1.8301502e-06
1.9661764e-06
8.757656e-07
9.4289973e-07
1.0768162e-06
1.2730556e-06
1.384555e-06
1.4699192e-06
1.5700751e-06
1.6835757e-06
1.8085389e-06
1.9422512e-06
8.3179294e-07
8.9873676e-07
1.0321951e-06
1.2275946e-06
1.3642952e-06
1.4442044e-06
1.5382799e-06
1.6452103e-06
1.76316e-06
1.8896961e-06
7.7148939e-07
8.3570857e-07
9.6321061e-07
1.1488831e-06
1.3030552e-06
1.3852885e-06
1.4816828e-06
1.5906934e-06
1.7102228e-06
1.8375565e-06
7.0786334e-07
7.6944196e-07
8.9173697e-07
1.0699397e-06
1.2422275e-06
1.3267289e-06
1.4254052e-06
1.5364934e-06
1.6576516e-06
1.7859038e-06
6.4741536e-07
7.0642897e-07
8.2366574e-07
9.9460337e-07
1.1818033e-06
1.2685132e-06
1.3694305e-06
1.4825882e-06
1.6054171e-06
1.7346985e-06
5.899738e-07
6.4650664e-07
7.5884786e-07
9.2274563e-07
1.1218249e-06
1.210692e-06
1.3138168e-06
1.4290405e-06
1.5535824e-06
1.6839976e-06
5.3533622e-07
5.8946711e-07
6.970679e-07
8.5413995e-07
1.0554944e-06
1.15326e-06
1.2585552e-06
1.3758339e-06
1.5021202e-06
1.6337587e-06
4.8332957e-07
5.3513834e-07
6.3815369e-07
7.8861399e-07
9.8166837e-07
1.0962347e-06
1.2036626e-06
1.3229817e-06
1.4510329e-06
1.5796426e-06
4.3377682e-07
4.8333877e-07
5.8191614e-07
7.2597321e-07
9.0807646e-07
1.0320844e-06
1.1363965e-06
1.2518381e-06
1.375363e-06
1.5033965e-06
3.8295053e-07
4.2825298e-07
5.1803371e-07
6.4853377e-07
8.1501335e-07
9.4713799e-07
1.0536182e-06
1.1714327e-06
1.2974777e-06
1.4281183e-06
3.349484e-07
3.7590818e-07
4.5717334e-07
5.7554795e-07
7.2706872e-07
8.6319192e-07
9.7180974e-07
1.0919762e-06
1.2205346e-06
1.3537948e-06
2.9049003e-07
3.2725722e-07
4.0029559e-07
5.069427e-07
6.4396828e-07
7.8023212e-07
8.9095721e-07
1.0134533e-06
1.144515e-06
1.2804022e-06
2.4933637e-07
2.8205686e-07
3.4714999e-07
4.4245926e-07
5.6544656e-07
6.9824151e-07
8.1104375e-07
9.3584628e-07
1.0693991e-06