/*--------------------------------*- C++ -*----------------------------------*\
  =========                 |
  \\      /  F ield         | OpenFOAM: The Open Source CFD Toolbox
   \\    /   O peration     | Website:  https://openfoam.org
    \\  /    A nd           | Version:  7
     \\/     M anipulation  |
\*---------------------------------------------------------------------------*/
FoamFile
{
    version     2.0;
    format      ascii;
    class       volScalarField;
    location    "80000";
    object      YCH4;
}
// * * * * * * * * * * * * * * * * * * * * * * * * * * * * * * * * * * * * * //

dimensions      [0 0 0 0 0 0 0];

internalField   nonuniform List<scalar> 
87000
(
0.88836236
0.88836192
0.88836078
0.8883584
0.88835324
0.88834035
0.88829845
0.88808046
0.88585181
0.83153835
0.8883429
0.88834068
0.88833224
0.88831422
0.88827457
0.88817631
0.88787152
0.88661873
0.87856797
0.80575049
0.88829296
0.88828524
0.88825771
0.88819957
0.88807287
0.88776234
0.88687977
0.88376146
0.86850448
0.78473008
0.88819368
0.88817284
0.88810823
0.88797156
0.88767396
0.88698879
0.88519283
0.87936044
0.85659989
0.76753723
0.88802425
0.88797833
0.88785085
0.88757971
0.88702319
0.88577379
0.88267691
0.87366469
0.84415104
0.75464386
0.88776012
0.88767424
0.88744962
0.88699413
0.88605705
0.88409151
0.87935131
0.86691388
0.83208381
0.74518839
0.8873728
0.88723269
0.88687707
0.88617293
0.88478003
0.88188672
0.87529762
0.85951335
0.82082044
0.73786842
0.8868411
0.88662345
0.88611167
0.88508001
0.88315846
0.87918057
0.87063495
0.85176472
0.81045589
0.73176562
0.88614236
0.88583661
0.88512303
0.88374664
0.88115907
0.87600121
0.86558621
0.84393019
0.80100577
0.72652059
0.8852543
0.8848498
0.88388665
0.88213861
0.87879937
0.87240052
0.86010487
0.83617957
0.79242229
0.72194153
0.88415524
0.88364189
0.88241771
0.880225
0.87609143
0.86842974
0.85437356
0.8285963
0.78456213
0.71777476
0.8828405
0.88219355
0.88073292
0.87801617
0.87305389
0.86414592
0.84847686
0.82123016
0.77730942
0.71389286
0.88128821
0.88049269
0.87878333
0.87551716
0.86970715
0.85959002
0.84246439
0.81407735
0.7705334
0.71018197
0.87949485
0.87853146
0.87656231
0.87273109
0.86606472
0.85494336
0.83641531
0.80717023
0.76418796
0.70663068
0.87746979
0.87638573
0.87407121
0.86966838
0.86216304
0.84999259
0.83037179
0.80052999
0.75824672
0.70325153
0.87520768
0.87400421
0.87132221
0.86634358
0.85802601
0.84489096
0.82434379
0.7941175
0.75262352
0.69998233
0.87269533
0.87138995
0.86831419
0.86276647
0.85367651
0.83966308
0.81834489
0.78790728
0.74726136
0.69679326
0.86993499
0.86849298
0.86505544
0.85894774
0.84912842
0.83432854
0.81238283
0.78187651
0.74211369
0.6936576
0.8668921
0.86535596
0.8615477
0.85489817
0.84439765
0.82890269
0.80645966
0.77600332
0.73714224
0.69055662
0.86356923
0.86196072
0.85779556
0.85062752
0.83949684
0.823382
0.8005538
0.77024241
0.73229024
0.68744779
0.85996469
0.85831384
0.8538007
0.84613139
0.83466412
0.81782042
0.79470202
0.76461142
0.72756756
0.68435689
0.85609683
0.85442015
0.84957517
0.84144546
0.8294993
0.81222857
0.78893119
0.75913323
0.72299558
0.68131929
0.85206457
0.85028335
0.84512897
0.83658071
0.82421262
0.80659385
0.78321037
0.75376623
0.71852962
0.67830176
0.84780948
0.84590509
0.8404683
0.83154516
0.81881202
0.80092107
0.77753024
0.74849018
0.71414625
0.67528773
0.84332665
0.84129289
0.83559887
0.82634327
0.81330542
0.79521478
0.7718862
0.74329012
0.70982932
0.67227224
0.83862182
0.83645322
0.8305273
0.82098383
0.80769975
0.78947803
0.76627341
0.7381548
0.7055656
0.66925017
0.83370263
0.8313924
0.82525949
0.81547373
0.8020024
0.78371344
0.76068851
0.73307456
0.70134257
0.66621348
0.82857782
0.82611552
0.81980712
0.80982154
0.79621877
0.77792169
0.75512495
0.7280395
0.69715212
0.66315707
0.82325249
0.82063335
0.81417428
0.80403359
0.79035429
0.77210382
0.74957916
0.72304159
0.69298655
0.66007869
0.81771017
0.8149483
0.80837315
0.79811893
0.78441448
0.7662614
0.74404808
0.718074
0.68883899
0.65697731
0.81194573
0.80907161
0.80241246
0.79208496
0.77840433
0.76039556
0.73852775
0.71312976
0.68470105
0.65384823
0.80588798
0.8030159
0.79630282
0.78593975
0.77232827
0.75450659
0.73301237
0.70820075
0.68056619
0.65068726
0.79959443
0.79679416
0.79005504
0.77969065
0.76618994
0.74859331
0.72750041
0.70328391
0.67643069
0.64749307
0.79315259
0.79042464
0.78367924
0.77334492
0.75999424
0.74265712
0.72198978
0.69837518
0.67229141
0.64426581
0.78665401
0.78392572
0.77718534
0.766911
0.75374607
0.73669844
0.71647599
0.69346736
0.66814097
0.64100126
0.78013013
0.7773078
0.77058343
0.76039574
0.74744945
0.73071736
0.71095529
0.68855636
0.66397622
0.63769707
0.77347251
0.77057942
0.7638829
0.75380579
0.74110615
0.72471462
0.70542842
0.68364166
0.65979656
0.63435423
0.76659807
0.76374346
0.75709163
0.74714901
0.73472116
0.71869061
0.69989364
0.67871997
0.65559885
0.63097106
0.75952156
0.75680099
0.75021682
0.74043072
0.7282993
0.71264756
0.69434761
0.67378504
0.65137678
0.62754398
0.75232332
0.7497453
0.74326377
0.73365591
0.72184108
0.70658393
0.68878932
0.66883705
0.64713118
0.62407355
0.74505875
0.74258423
0.73624386
0.72682947
0.71535168
0.70050144
0.68321922
0.66387655
0.64286255
0.62056253
0.7377204
0.73534639
0.72915893
0.7199584
0.70883502
0.69440318
0.67763684
0.65890026
0.638568
0.61700913
0.73031767
0.72803608
0.72201456
0.71305083
0.70229391
0.68829106
0.67204576
0.65391118
0.63424978
0.61341593
0.72286896
0.72066968
0.71482777
0.70610768
0.69573716
0.68217068
0.66644854
0.6489127
0.62991184
0.60978681
0.71537822
0.71326119
0.70760526
0.69914681
0.68917817
0.67608152
0.66088761
0.64394405
0.62558954
0.60615297
0.70787234
0.70585762
0.700392
0.6922304
0.68172745
0.66991724
0.65528293
0.63893928
0.62122953
0.60247219
0.70035635
0.69844251
0.69315469
0.68525161
0.67507054
0.66371775
0.64960999
0.63385872
0.6167882
0.59870284
0.69282245
0.69100725
0.6858946
0.67825367
0.66840358
0.65752321
0.64392843
0.62875499
0.61230876
0.59488099
0.68527331
0.68356139
0.67862451
0.67124924
0.66173533
0.65133226
0.63824512
0.62363917
0.607804
0.5910186
0.67772034
0.67611342
0.6713568
0.66424894
0.65507283
0.64514892
0.63256561
0.61851726
0.60328163
0.58712332
0.6701572
0.66867517
0.66410423
0.65726191
0.64842357
0.63898366
0.62692184
0.61342856
0.59877941
0.58323043
0.66254225
0.66127452
0.65689804
0.65033633
0.64186281
0.63173227
0.62120655
0.6082909
0.59423345
0.57929088
0.6549675
0.65390906
0.64972141
0.64342398
0.63526983
0.62551124
0.6154817
0.6030989
0.5896157
0.57527042
0.6474244
0.64656955
0.64256473
0.63652287
0.62867913
0.61930764
0.60978204
0.59791524
0.58498735
0.57122102
0.6399052
0.63925509
0.63543702
0.62964842
0.62212157
0.6131307
0.60411207
0.59276948
0.58038957
0.56718713
0.63242371
0.63198904
0.62836669
0.62283815
0.61565071
0.60705616
0.59720984
0.58755553
0.57574213
0.56310772
0.6249967
0.62478169
0.62135408
0.6160716
0.60920225
0.60095581
0.59150244
0.58235523
0.57107912
0.5589966
0.61763045
0.61763688
0.61440058
0.60935876
0.60280508
0.59491138
0.58589826
0.57586179
0.56634173
0.55482329
0.61033094
0.61055644
0.60750613
0.60269668
0.59644559
0.58888482
0.58026534
0.57063412
0.56161945
0.55061699
0.60309629
0.60353774
0.60065489
0.59608123
0.59012215
0.58290732
0.57465165
0.56545065
0.55693269
0.54641865
0.59592498
0.59658927
0.59386318
0.58952679
0.58385534
0.57698427
0.56909257
0.56033494
0.55080007
0.54217329
0.58882755
0.58971874
0.58714912
0.58304539
0.57765602
0.57112151
0.56358303
0.55524341
0.54615723
0.53644975
0.58181207
0.58292845
0.58051506
0.57663682
0.57152013
0.56530978
0.55813068
0.55016552
0.54150019
0.53222848
0.57488213
0.57614979
0.57396517
0.57030638
0.56544987
0.55955238
0.55272728
0.54511951
0.53687
0.52803936
0.56804127
0.56946693
0.56750369
0.56405914
0.55944756
0.55385179
0.54736822
0.5401124
0.53225093
0.52383781
0.56129744
0.56288879
0.56113288
0.5579069
0.55353381
0.54823336
0.54208497
0.53519627
0.52769354
0.51969549
0.55466379
0.5564244
0.55485737
0.55184019
0.54772117
0.54270998
0.53689014
0.53036101
0.52322523
0.51561471
0.54814348
0.55007233
0.5486876
0.54586291
0.54199413
0.537258
0.53175202
0.52556583
0.51879381
0.51152779
0.54173699
0.54380133
0.54262111
0.53997948
0.53635296
0.53187144
0.52666313
0.52080125
0.51437249
0.5074626
0.53544025
0.53731728
0.53665428
0.53418471
0.53078778
0.52654373
0.52161578
0.51606124
0.50995833
0.5033872
0.52926558
0.53096131
0.53078274
0.52847457
0.52528557
0.52127324
0.51660987
0.51134693
0.50555411
0.49930508
0.52330821
0.52472555
0.52497754
0.52283312
0.5198296
0.51606039
0.51164535
0.50665878
0.50116214
0.49522208
0.51743986
0.51859963
0.51916552
0.51725402
0.51444295
0.51090933
0.50672282
0.50199911
0.49678559
0.4911417
0.51165804
0.51257969
0.51344405
0.51175248
0.50912335
0.50581236
0.50184279
0.49736904
0.49242529
0.48706619
0.50595962
0.50666163
0.50780954
0.50632567
0.50386875
0.5007468
0.49700871
0.49277011
0.48808388
0.48299732
0.50034211
0.50084125
0.50225889
0.5009717
0.49867824
0.49572653
0.49222377
0.48820285
0.48376245
0.47893649
0.49480283
0.49511513
0.49678911
0.49568801
0.49352118
0.49076029
0.48748083
0.48366734
0.47946148
0.47488464
0.4893388
0.48947585
0.49104696
0.49043145
0.48842478
0.48584719
0.48275233
0.47917203
0.47518103
0.47084214
0.4839499
0.48392202
0.48532483
0.48515356
0.48339132
0.48098717
0.47806148
0.47470934
0.47092198
0.4668099
0.47863484
0.47845424
0.47970355
0.47995099
0.47841895
0.47616421
0.47341391
0.47026275
0.46669242
0.46278746
0.47339144
0.47308332
0.47418076
0.47482081
0.47350533
0.47137339
0.46880799
0.46582764
0.462484
0.45877624
0.4682166
0.46793593
0.46875217
0.46975939
0.468647
0.46663209
0.46424131
0.46142312
0.45827925
0.45478147
0.46310582
0.46284934
0.46341063
0.46464474
0.46369487
0.46193765
0.45968984
0.45704695
0.45407126
0.45079387
0.45805603
0.45782095
0.45814773
0.45922988
0.45880412
0.4572882
0.4551621
0.45269772
0.44988119
0.44678839
0.45306516
0.45284913
0.45296312
0.45391042
0.45397174
0.45268081
0.45066971
0.44836466
0.44570725
0.4427765
0.44812992
0.44793079
0.4478553
0.44868214
0.44919265
0.44801693
0.44620932
0.4440271
0.44154694
0.43876924
0.44324581
0.44306171
0.44281874
0.44353751
0.44444019
0.44333653
0.44177721
0.43971093
0.43739135
0.43476418
0.43840763
0.43823696
0.43784647
0.43846439
0.43924302
0.43869888
0.43737034
0.43541295
0.43321398
0.43075875
0.4336115
0.43345285
0.43308843
0.43345884
0.43412846
0.43409865
0.43286415
0.43112973
0.42904421
0.42673898
0.42885179
0.42870394
0.42836324
0.42851627
0.42908959
0.4295296
0.42834907
0.42685608
0.42487722
0.42268794
0.42412248
0.4239843
0.42366504
0.4236296
0.42411458
0.42467831
0.42385671
0.42254257
0.42070844
0.41862796
0.41941726
0.41928777
0.41898789
0.41878922
0.41919379
0.4196693
0.41938074
0.4181238
0.41653306
0.41455451
0.41472974
0.41460808
0.41432581
0.41398755
0.4143215
0.41471993
0.41491436
0.41371146
0.41234173
0.41046162
0.41005253
0.40993795
0.40967174
0.40926769
0.40948983
0.40981742
0.41017345
0.40929715
0.40798518
0.40634326
0.40537732
0.40526915
0.40501761
0.40463541
0.40468633
0.40494875
0.40523843
0.40487351
0.4036164
0.40219235
0.40069532
0.40059299
0.40035485
0.39999254
0.39990053
0.40010634
0.40033895
0.40043116
0.39922489
0.39787373
0.39599681
0.39589979
0.39567387
0.39532979
0.39512214
0.39527941
0.39545855
0.39563934
0.39480122
0.39350349
0.39127125
0.39117908
0.39096433
0.39063697
0.39033856
0.39045368
0.39058447
0.39071879
0.3903351
0.38908688
0.38650733
0.38641959
0.38621508
0.38590309
0.38553767
0.38561656
0.38570573
0.3858001
0.38581418
0.3846117
0.3816926
0.38160893
0.38141383
0.38111605
0.38071937
0.38075515
0.38080892
0.38086514
0.38090977
0.38006554
0.37681296
0.37673303
0.37654656
0.37626188
0.37588239
0.3758525
0.37587531
0.37589729
0.37591066
0.37543344
0.371854
0.3717775
0.37159895
0.3713263
0.37096266
0.37089317
0.37089002
0.37088328
0.37087048
0.37070086
0.36679955
0.36672624
0.36655502
0.36629349
0.36594458
0.36586158
0.36583662
0.36580563
0.36576843
0.36571248
0.36163226
0.36156188
0.36139742
0.36114615
0.36081085
0.36073884
0.36069545
0.36064379
0.36058421
0.36050824
0.3563335
0.35626585
0.35610762
0.35586582
0.35555472
0.35550573
0.35544676
0.35537756
0.35529894
0.35520599
0.35088376
0.35081865
0.3506662
0.35043327
0.35020223
0.35014213
0.3500699
0.34998591
0.34989124
0.34978333
0.34526234
0.34519961
0.34505254
0.34482789
0.3446957
0.34462616
0.34454275
0.34444629
0.34433803
0.34421675
0.33944776
0.33938727
0.33924525
0.33907449
0.3390128
0.33893519
0.33884226
0.33873513
0.33861516
0.33848167
0.33341854
0.3333602
0.33324683
0.33319755
0.33313019
0.33304539
0.33294415
0.33282768
0.33269743
0.33255256
0.32718805
0.32718149
0.327149
0.32709582
0.32702316
0.32693199
0.32682336
0.32669849
0.32655889
0.326403
0.3208439
0.320836
0.32080098
0.32074408
0.32066666
0.32056971
0.32045429
0.32032163
0.32017317
0.32000624
0.31422498
0.31421574
0.31417836
0.31411805
0.31403617
0.31393373
0.31381174
0.31367141
0.31351412
0.31333558
0.307308
0.3072975
0.30725784
0.30719418
0.30710786
0.30699985
0.30687114
0.30672289
0.30655591
0.30629802
0.30007135
0.30005957
0.30001752
0.29995032
0.29985927
0.2997453
0.29960932
0.29945237
0.29927362
0.29877137
0.29249633
0.29248316
0.2924385
0.29236739
0.2922711
0.29215047
0.29200632
0.29183956
0.29164744
0.29090001
0.28456865
0.28455396
0.28450637
0.2844309
0.28432874
0.28420062
0.28404726
0.28386882
0.28354161
0.2826874
0.27628084
0.27626443
0.27621355
0.27613314
0.27602432
0.27588771
0.27572389
0.27553198
0.2749923
0.2741483
0.26763508
0.26761677
0.26756226
0.26747639
0.2673602
0.26721422
0.26703888
0.26683254
0.26614162
0.26531
0.25864654
0.25862617
0.25856775
0.25847603
0.25835197
0.25819599
0.25800827
0.2577575
0.25703087
0.25621443
0.24934642
0.24932392
0.24926148
0.24916377
0.24903166
0.24886548
0.24866538
0.24842709
0.2477168
0.24691891
0.23978492
0.23976031
0.23969398
0.23959051
0.2394507
0.23927481
0.23906294
0.23881422
0.23827127
0.23749571
0.23003252
0.23000596
0.22993617
0.22982762
0.22968106
0.22949672
0.22927465
0.2290148
0.22871664
0.22802889
0.22017812
0.2201499
0.22007737
0.21996483
0.21981303
0.21962218
0.21939234
0.21912346
0.21881545
0.21846813
0.21032464
0.21029518
0.2102208
0.21010566
0.2099505
0.20975553
0.20952084
0.20924641
0.2089322
0.20857814
0.20058083
0.20055058
0.20047536
0.20035916
0.20020271
0.20000624
0.19976987
0.19949364
0.19917758
0.1988217
0.19105132
0.19102076
0.19094569
0.19082992
0.19067415
0.19047867
0.19024361
0.18996908
0.18965516
0.18930192
0.18182695
0.18179651
0.18172243
0.18160837
0.181455
0.18126261
0.18103138
0.18076146
0.18045296
0.18010602
0.17297729
0.17294729
0.17287487
0.17276346
0.17261374
0.172426
0.17220041
0.17193714
0.17163634
0.17129818
0.16455407
0.164522
0.1644485
0.16434026
0.16419483
0.16401248
0.16379339
0.16353769
0.16324554
0.16291716
0.1566284
0.15659759
0.15652496
0.15641363
0.15626424
0.15607715
0.15585264
0.15559102
0.15530211
0.15498409
0.14912952
0.14909992
0.14903025
0.14892349
0.14878025
0.14860086
0.1483856
0.14813473
0.1478485
0.14752721
0.14205267
0.14202418
0.14195728
0.14185479
0.14171729
0.14154506
0.14133835
0.14109739
0.14082245
0.14051381
0.13538439
0.13535693
0.13529253
0.13519387
0.13506151
0.13489572
0.13469671
0.1344648
0.13420018
0.13390306
0.12910488
0.12907837
0.12901626
0.12892111
0.12879344
0.12863351
0.12844151
0.12821762
0.12796203
0.12767499
0.12319101
0.12316536
0.1231053
0.12301331
0.12288987
0.12273521
0.12254952
0.12233294
0.12208564
0.12180786
0.11761909
0.11759417
0.11753589
0.11744663
0.11732684
0.11717676
0.11699672
0.11678674
0.11654693
0.1162775
0.11236459
0.11234037
0.11228376
0.11219705
0.11208068
0.11193486
0.11175974
0.11155544
0.11132209
0.11106026
0.10740417
0.10738058
0.10732548
0.10724109
0.10712782
0.10698588
0.10681539
0.10661645
0.10638918
0.10613373
0.1027157
0.10269265
0.10263894
0.10255667
0.10244626
0.10230787
0.10214163
0.10194763
0.10172595
0.10147674
0.098279841
0.098257312
0.098204719
0.098124169
0.098016056
0.097880552
0.097718145
0.097528722
0.097312239
0.097068839
0.094076681
0.094054659
0.094003257
0.093924526
0.093818849
0.093686385
0.093527231
0.09334146
0.09312945
0.092891255
0.090088674
0.090067134
0.090016856
0.089939843
0.089836465
0.089706872
0.08955115
0.08936936
0.089161551
0.08892799
0.086299676
0.0862786
0.086229398
0.08615403
0.086052852
0.085926005
0.085773565
0.085595582
0.085392092
0.085163197
0.082696238
0.082675555
0.082627269
0.082553299
0.082453987
0.082329466
0.0821798
0.082005299
0.081806005
0.081581791
0.079299786
0.079275179
0.079219162
0.079133651
0.079027964
0.078905982
0.078759351
0.078588099
0.078392235
0.078171832
0.07606453
0.076040299
0.075985158
0.075900987
0.075788121
0.075646692
0.075497541
0.075329789
0.075137906
0.074921955
0.072978042
0.072954098
0.072899633
0.072816496
0.072705014
0.072565313
0.072397457
0.072219225
0.072030459
0.071818486
0.070028319
0.070004743
0.069951129
0.069869292
0.06975955
0.069622023
0.069456767
0.069263812
0.069064802
0.068856793
0.067206635
0.067183316
0.067130306
0.067049395
0.066940895
0.066804918
0.066641516
0.066451181
0.066234068
0.066022203
0.064506935
0.064483981
0.064431816
0.064352192
0.064245406
0.064111562
0.063950701
0.063762836
0.063547957
0.063310265
0.061548095
0.061628704
0.061785565
0.061765048
0.061659377
0.061526923
0.06136793
0.06118321
0.060971882
0.06073395
0.058530247
0.058610192
0.058765758
0.058997806
0.059184433
0.059054133
0.05889749
0.058714496
0.058505124
0.058269373
0.055650974
0.055729984
0.055883774
0.056113088
0.056418161
0.056676247
0.056521032
0.056340217
0.056134552
0.055902973
0.052908499
0.052988589
0.053140668
0.053367324
0.053668703
0.054044498
0.054246331
0.054068187
0.053864336
0.053634795
0.050251259
0.050340134
0.050513743
0.050745955
0.05104216
0.051411655
0.051853509
0.05187851
0.051676434
0.051449546
0.047711454
0.047799677
0.047972067
0.04822856
0.04853447
0.048898149
0.049333208
0.049775973
0.049577485
0.049353992
0.045290977
0.04537827
0.045548879
0.045802651
0.046138816
0.046499826
0.046926705
0.047421684
0.047558989
0.047339503
0.042981856
0.043067832
0.043235854
0.043485745
0.043817047
0.044208119
0.044626476
0.045112144
0.045616005
0.045401058
0.040779178
0.040863924
0.041029565
0.041275843
0.041601867
0.042006228
0.042427942
0.04290217
0.043440752
0.04353431
0.038675429
0.038758865
0.038921965
0.039164394
0.039485168
0.039882768
0.040327969
0.040791302
0.041316775
0.041735453
0.036664898
0.036746983
0.03690747
0.037145951
0.037461361
0.037852083
0.038315985
0.038771886
0.039286093
0.039857727
0.034748159
0.034828428
0.034985321
0.035218429
0.03552668
0.035908496
0.036363963
0.03683794
0.037340948
0.037900655
0.032920344
0.032999114
0.03315311
0.033381864
0.033684246
0.034058569
0.034502613
0.03498941
0.035478317
0.036025052
0.031171999
0.031249325
0.031400546
0.031625146
0.031921956
0.032289241
0.032724757
0.033225316
0.033703704
0.034236884
0.029507195
0.02958256
0.029729893
0.029948691
0.030237797
0.030595497
0.031021584
0.031513321
0.032003619
0.03252571
0.027921234
0.027995193
0.028139849
0.02835467
0.028638494
0.028989608
0.029405803
0.02988432
0.03038046
0.030886441
0.026400584
0.026473253
0.026615483
0.026826727
0.027105837
0.027451135
0.027860465
0.028331175
0.028837705
0.029333197
0.024964317
0.025035112
0.025173627
0.02537934
0.025651134
0.025987374
0.02638596
0.026844333
0.027356848
0.027843058
0.023586256
0.023655935
0.023792389
0.023995096
0.024262985
0.024594489
0.024987611
0.025439931
0.025948485
0.026431115
0.022277564
0.02234551
0.022478532
0.022676137
0.022937292
0.023260483
0.023643784
0.024088888
0.024592092
0.025083837
0.02102938
0.021096413
0.021227795
0.02142304
0.021681175
0.02200078
0.022380052
0.022816815
0.023308466
0.02380217
0.019837658
0.019903113
0.020031368
0.020221972
0.020473993
0.020786075
0.021159822
0.021592801
0.022080623
0.022585942
0.018706144
0.018770858
0.018897823
0.019086587
0.019336278
0.019645622
0.020013003
0.020436485
0.020913812
0.021424413
0.017621661
0.017684922
0.017809011
0.017993513
0.018237601
0.018540068
0.018904261
0.019324745
0.019798992
0.020324801
0.016593883
0.016656513
0.016779523
0.016962489
0.017204618
0.017504761
0.017861459
0.018272975
0.018737316
0.019252521
0.015607669
0.015668919
0.015789199
0.015968116
0.016204927
0.016498544
0.016849579
0.017256861
0.017716537
0.018226742
0.014665553
0.014726033
0.014844908
0.015021774
0.015255905
0.015546239
0.01589156
0.016292915
0.016745968
0.017248922
0.013770398
0.013829899
0.013946911
0.014121027
0.014351535
0.014637401
0.014977325
0.015371814
0.01581947
0.016316287
0.01292013
0.012978822
0.013094338
0.013266239
0.013493797
0.013775963
0.014111419
0.014498594
0.014935686
0.015420989
0.012107984
0.012165248
0.012277929
0.012445619
0.012667633
0.012942976
0.013270398
0.013648415
0.014075914
0.014556312
0.011322393
0.011379071
0.011490729
0.011656889
0.011876804
0.012149407
0.012473358
0.012847059
0.013268678
0.013736416
0.010588377
0.010643534
0.010752162
0.010913815
0.011127782
0.011393047
0.011708328
0.0120721
0.012482612
0.012938171
0.0098724194
0.0099261159
0.010031835
0.010189162
0.010398005
0.010660572
0.010972378
0.011331748
0.011736755
0.01218547
0.0092035987
0.0092565696
0.0093609821
0.0095163375
0.009721886
0.0099765578
0.010279003
0.010627613
0.011020533
0.011455905
0.0085594542
0.0086108682
0.0087121708
0.0088628922
0.0090623105
0.0093093962
0.0096028519
0.0099411443
0.010328139
0.010757197
0.0079412106
0.0079919632
0.0080920947
0.0082410492
0.0084380287
0.0086819085
0.0089712715
0.0093044232
0.0096793931
0.010094157
0.0073660025
0.0074151178
0.0075119754
0.007656046
0.0078465566
0.0080824155
0.0083622472
0.0086844055
0.0090469824
0.0094480273
0.0067412417
0.006851577
0.0069452948
0.0070846783
0.0072689822
0.0074981914
0.0077747034
0.008092702
0.0084501342
0.0088448676
0.0060803413
0.0063279399
0.0064204742
0.0065580823
0.0067399513
0.0069649433
0.0072316219
0.007538265
0.0078828752
0.0082633711
0.0054657936
0.0057133717
0.0059188888
0.0060516806
0.0062271491
0.0064441969
0.006701426
0.0069971617
0.0073294646
0.0076990972
0.004880397
0.0051136509
0.0054284733
0.0055582089
0.0057319192
0.005946679
0.0062010196
0.0064931851
0.0068211407
0.0071827478
0.0043616867
0.0045814876
0.0049892141
0.0051158563
0.0052831088
0.0054898574
0.0057346724
0.0060158432
0.0063313866
0.0066792175
0.003873513
0.0040793127
0.0044922302
0.0046832784
0.0048443393
0.0050433923
0.0052790583
0.0055496726
0.0058533134
0.0062005806
0.0034087329
0.003601543
0.0039911474
0.0042694277
0.0044316348
0.0046320067
0.0048691124
0.0051412229
0.005446353
0.0057824193
0.0030367084
0.0032166417
0.0035778987
0.0039212742
0.004077132
0.0042696358
0.0044974163
0.0047588037
0.0050518805
0.0053746354
0.0026862991
0.0028526158
0.0031866518
0.0035807268
0.0037304765
0.0039154133
0.0041342244
0.004385298
0.0046667832
0.0049767387
0.0023546699
0.0025079146
0.0028158053
0.0032474372
0.0033913068
0.003568965
0.0037791483
0.0040203011
0.0042906375
0.0045882829
0.0020403786
0.0021810878
0.0024638754
0.0028858343
0.0030593
0.0032299751
0.0034318702
0.0036634929
0.0039231198
0.0042089417
0.0017422379
0.001870905
0.0021295661
0.002515891
0.0027341539
0.0028981041
0.0030920148
0.0033144586
0.0035637725
0.0038392568
0.0014590219
0.0015761509
0.0018116882
0.0021638565
0.0024165433
0.0025871573
0.0027886248
0.0030193477
0.0032775095
0.0035612537
0.0012578411
0.0013662143
0.0015847095
0.0019120287
0.0021971405
0.0023599066
0.0025521417
0.0027723533
0.0030188378
0.0032898566
0.0010937338
0.001191382
0.0013884274
0.001684156
0.0019826699
0.002137845
0.0023211508
0.002531193
0.0027663756
0.0030250748
0.00094038627
0.0010277181
0.0012041287
0.0014694474
0.0017728923
0.0019207236
0.0020953923
0.0022955969
0.0025198457
0.0027666241
0.00079706633
0.00087449263
0.0010310843
0.0012671785
0.0015676671
0.0017084116
0.0018747469
0.0020654577
0.0022791521
0.0025144207
0.0006630323
0.00073094359
0.00086849566
0.0010764973
0.0013570982
0.0015006843
0.001658975
0.0018405159
0.0020440133
0.0022681576
0.00053762101
0.0005963972
0.00071566508
0.00089667327
0.001142124
0.0012973689
0.0014478952
0.0016205793
0.0018142188
0.0020399635
0.00042020126
0.00047020457
0.00057191009
0.00072698231
0.00094802949
0.0011210029
0.001278813
0.0014592405
0.0016608388
0.001882175
0.00035597616
0.00040159475
0.00049525332
0.00063962173
0.0008392842
0.0010133035
0.0011614806
0.0013309963
0.0015205497
0.0017288601
0.00030648938
0.0003469005
0.00043001341
0.00055850725
0.00073691447
0.00090855824
0.001047396
0.0012063298
0.0013841953
0.0015798561
0.0002608144
0.0002962338
0.00036923691
0.00048251081
0.00064053453
0.00080663832
0.00093642132
0.0010850912
0.0012516127
0.0014349863
0.00021867669
0.00024931025
0.00031262003
0.00041130022
0.00054977548
0.00070741599
0.00082841933
0.00096713244
0.0011226419
0.0012940783
0.00017982029
0.00020586491
0.00025987953
0.00034456472
0.00046429019
0.00061076822
0.00072325725
0.00085230974
0.0009971275
0.0011569647
0.00014400855
0.00016565237
0.0002107524
0.00028201474
0.00038375406
0.00051657772
0.00062080807
0.00074048516
0.00087491839
0.0010234772
0.00011102021
0.00012844294
0.00016499166
0.00022337695
0.00030785787
0.00042405751
0.00052093854
0.0006332187
0.00077123513
0.00092406634
8.3703828e-05
9.8080476e-05
0.00012898569
0.00017994416
0.00025629133
0.00036484845
0.00046769182
0.00058126395
0.00070920254
0.00085096616
7.3746104e-05
8.6681475e-05
0.00011453456
0.00016056884
0.00022971248
0.00032825736
0.00042634129
0.00053116821
0.00064932152
0.00078033307
6.4541631e-05
7.6103993e-05
0.00010104975
0.00014239401
0.00020467774
0.00029368902
0.00038655447
0.00048288673
0.00059153188
0.00071209239
5.6042837e-05
6.6297072e-05
8.8473024e-05
0.00012534958
0.00018109956
0.00026103168
0.00034826712
0.00043634726
0.00053575271
0.00064615306
4.8199577e-05
5.720716e-05
7.6743645e-05
0.00010936331
0.00015888894
0.00023017325
0.00031141301
0.00039147584
0.00048190134
0.00058242297
4.0964318e-05
4.8783362e-05
6.5803632e-05
9.4365834e-05
0.00013795995
0.0002010049
0.00027592548
0.00034819767
0.00042989394
0.00052080852
3.4292249e-05
4.0977591e-05
5.5597974e-05
8.0290992e-05
0.00011823014
0.00017342159
0.00024173787
0.00030643732
0.0003796452
0.00046121282
2.8141528e-05
3.3744817e-05
4.6074899e-05
6.7076128e-05
9.9620886e-05
0.00014732221
0.00020878279
0.00026611619
0.00033105865
0.00040651747
2.2472128e-05
2.7041795e-05
3.7184244e-05
5.4659646e-05
8.2073025e-05
0.00012444125
0.0001821412
0.00023673859
0.00029966928
0.00037110113
1.9083915e-05
2.3119309e-05
3.2207818e-05
4.8143449e-05
7.3569346e-05
0.00011182044
0.00016547792
0.00021500184
0.00027209559
0.00033691282
1.675956e-05
2.0357163e-05
2.8474042e-05
4.2736656e-05
6.5534668e-05
9.9872084e-05
0.0001492087
0.00019409611
0.00024552572
0.00030392517
1.4597392e-05
1.7779363e-05
2.4973558e-05
3.7646899e-05
5.7947632e-05
8.8564766e-05
0.00013257648
0.00017399038
0.0002199199
0.00027208757
1.2585809e-05
1.537295e-05
2.1690413e-05
3.2853134e-05
5.0779381e-05
7.7858067e-05
0.00011680337
0.00015479136
0.00019718965
0.0002461639
1.0770435e-05
1.3213442e-05
1.8787935e-05
2.8719824e-05
4.4809336e-05
6.9323833e-05
0.00010488296
0.00014132032
0.00017986945
0.00022435435
9.5482947e-06
1.1743415e-05
1.6757393e-05
2.5700675e-05
4.0199474e-05
6.2294138e-05
9.432925e-05
0.00012833277
0.000163155
0.00020329655
8.4065874e-06
1.0366427e-05
1.484818e-05
2.2852328e-05
3.5839482e-05
5.5634085e-05
8.4319108e-05
0.00011581804
0.00014702846
0.00018296449
7.340268e-06
9.0768076e-06
1.3053225e-05
2.0165249e-05
3.1715793e-05
4.9323775e-05
7.4823189e-05
0.00010375564
0.00013146316
0.00016332009
6.3435637e-06
7.8680015e-06
1.1364235e-05
1.762812e-05
2.7812213e-05
4.3339399e-05
6.5804688e-05
9.2832747e-05
0.00011849017
0.00014852155
5.4844807e-06
6.8324475e-06
9.9395103e-06
1.5542021e-05
2.4717099e-05
3.881627e-05
5.9392919e-05
8.47054e-05
0.00010800995
0.00013522899
4.8592576e-06
6.0688567e-06
8.8595842e-06
1.3896507e-05
2.2149582e-05
3.4830686e-05
5.33242e-05
7.6846717e-05
9.7876012e-05
0.00012237908
4.2739345e-06
5.3521032e-06
7.8422365e-06
1.2341488e-05
1.9717791e-05
3.1050125e-05
4.7561934e-05
6.9250896e-05
8.807838e-05
0.00010995638
3.7260391e-06
4.6793642e-06
6.8838467e-06
1.0871908e-05
1.7414269e-05
2.7463331e-05
4.2089305e-05
6.1905928e-05
7.860049e-05
9.7936353e-05
3.2127301e-06
4.0473665e-06
5.9801693e-06
9.4818044e-06
1.5230243e-05
2.4057061e-05
3.6885419e-05
5.4993584e-05
7.0598627e-05
8.8824342e-05
2.7608353e-06
3.4947513e-06
5.2034956e-06
8.3207714e-06
1.3479068e-05
2.1469796e-05
3.3198908e-05
4.9632454e-05
6.4330685e-05
8.0832333e-05
2.4474807e-06
3.1059476e-06
4.6403937e-06
7.4420795e-06
1.20798e-05
1.9262009e-05
2.9794331e-05
4.4527357e-05
5.826118e-05
7.3099564e-05
2.1535599e-06
2.740278e-06
4.1089113e-06
6.6102612e-06
1.0752467e-05
1.7165042e-05
2.6558122e-05
3.9672476e-05
5.2386169e-05
6.5618514e-05
1.8780027e-06
2.3965213e-06
3.6074792e-06
5.8231042e-06
9.4937324e-06
1.5173689e-05
2.3482209e-05
3.5055583e-05
4.6697442e-05
5.8377265e-05
1.6194907e-06
2.0731388e-06
3.1340587e-06
5.0776766e-06
8.2991795e-06
1.3281136e-05
2.055597e-05
3.065949e-05
4.1366357e-05
5.2278736e-05
1.3765814e-06
1.7684251e-06
2.6863322e-06
4.3834039e-06
7.2329635e-06
1.1683931e-05
1.8256548e-05
2.7503426e-05
3.7724861e-05
4.760717e-05
1.2131728e-06
1.5654906e-06
2.3952976e-06
3.9288498e-06
6.4943146e-06
1.0499687e-05
1.6407653e-05
2.4704841e-05
3.4193891e-05
4.3083637e-05
1.0703062e-06
1.3847978e-06
2.1262216e-06
3.4975963e-06
5.7923093e-06
9.3731268e-06
1.4648114e-05
2.2041224e-05
3.0774867e-05
3.8706949e-05
9.361871e-07
1.2147065e-06
1.8720379e-06
3.089033e-06
5.1259317e-06
8.302435e-06
1.2974639e-05
1.950691e-05
2.7463729e-05
3.4471156e-05
8.1028249e-07
1.0545877e-06
1.6319108e-06
2.7019673e-06
4.4934056e-06
7.2849048e-06
1.1383087e-05
1.7095534e-05
2.4255535e-05
3.0367743e-05
6.9189418e-07
9.0362701e-07
1.4047473e-06
2.3347931e-06
3.8922413e-06
6.316558e-06
9.8666078e-06
1.4942984e-05
2.1659958e-05
2.7474856e-05
5.8882115e-07
7.733531e-07
1.2130394e-06
2.0361787e-06
3.4285854e-06
5.621118e-06
8.875299e-06
1.346597e-05
1.9661017e-05
2.4930586e-05
5.2173165e-07