/*--------------------------------*- C++ -*----------------------------------*\
  =========                 |
  \\      /  F ield         | OpenFOAM: The Open Source CFD Toolbox
   \\    /   O peration     | Website:  https://openfoam.org
    \\  /    A nd           | Version:  7
     \\/     M anipulation  |
\*---------------------------------------------------------------------------*/
FoamFile
{
    version     2.0;
    format      ascii;
    class       volScalarField;
    location    "80000";
    object      YCO2;
}
// * * * * * * * * * * * * * * * * * * * * * * * * * * * * * * * * * * * * * //

dimensions      [0 0 0 0 0 0 0];

internalField   nonuniform List<scalar> 
87000
(
4.3120969e-07
4.8509242e-07
6.2374335e-07
9.1361551e-07
1.5421532e-06
3.113636e-06
8.2209663e-06
2.4464233e-05
0.00019305288
0.0033510562
2.8025872e-06
3.0726962e-06
4.1013077e-06
6.2973525e-06
1.1130062e-05
2.2561997e-05
4.5060348e-05
0.00013421213
0.00057777178
0.0048716408
8.8884591e-06
9.828308e-06
1.3183737e-05
2.0270862e-05
3.4194318e-05
5.6326818e-05
9.1922586e-05
0.00036660944
0.0011712083
0.006111122
2.0985594e-05
2.352567e-05
3.1402273e-05
4.5724261e-05
6.5685482e-05
0.00010596077
0.00024672877
0.00069155579
0.0018732105
0.0071249141
4.1632866e-05
4.7232456e-05
6.0114407e-05
7.6439503e-05
0.00011398458
0.00017867935
0.00045272615
0.00086691771
0.0026073073
0.0078852311
7.3821068e-05
8.209368e-05
9.5974012e-05
0.00012391026
0.00015407988
0.00033235388
0.00071645404
0.0012650056
0.0033188968
0.0084428801
0.0001199643
0.00012729648
0.00014145826
0.00017503053
0.00025450423
0.00051249802
0.0010097771
0.0017014106
0.0039830843
0.0088745357
0.0001802203
0.0001769633
0.00020054759
0.00020952189
0.00040369323
0.00073148847
0.0013146071
0.0021583405
0.0045942737
0.0092344202
0.00025429191
0.00024444984
0.00025992422
0.00031999203
0.00056667612
0.00098276796
0.0013432999
0.0026203369
0.0051515358
0.0095437288
0.00033936418
0.00032511585
0.00030473507
0.00047341734
0.00075936721
0.0012552513
0.0016665315
0.003077383
0.0056576986
0.0098137782
0.00042989195
0.00041052223
0.00038612864
0.00063393014
0.00097759408
0.0015232817
0.0020044992
0.0035245599
0.0061212037
0.010059522
0.000547225
0.00049103453
0.00054909774
0.00081444469
0.0012179806
0.0018083568
0.0023522214
0.003958936
0.0065488876
0.010288446
0.00068205924
0.00055770437
0.0007277734
0.0010176158
0.001482091
0.0020973667
0.002706775
0.0043807288
0.0069484663
0.01050728
0.00082975878
0.00060949989
0.00091637572
0.0012444835
0.0017559422
0.0019709018
0.0030634842
0.0047880345
0.0073226479
0.010716703
0.00098352364
0.0007893614
0.0011174306
0.00148886
0.0020269767
0.0022628433
0.0034198664
0.0051796045
0.0076729997
0.010915975
0.0011404883
0.0010108039
0.001341677
0.001752128
0.002306813
0.0025636827
0.0037753297
0.0055577448
0.0080045932
0.011108765
0.0012986913
0.0012701761
0.0015850997
0.0020349099
0.0026020857
0.0028719682
0.0041290793
0.0059239534
0.0083207952
0.01129683
0.0014535582
0.0015106343
0.0018509692
0.0023362961
0.0029036159
0.0031865378
0.0044806591
0.0062795834
0.0086243493
0.011481738
0.0016047206
0.0017786112
0.0021346225
0.0026468962
0.0032104481
0.0035064973
0.004829944
0.0066259203
0.0089175117
0.011664598
0.001748773
0.0020525274
0.0024350637
0.0029538483
0.0035213597
0.0038320481
0.0051782069
0.0069656348
0.0092036302
0.011847922
0.0018818876
0.0023449076
0.0027519347
0.0032719648
0.0031667491
0.0041600098
0.0055232816
0.0072976927
0.0094821232
0.012030189
0.0020024601
0.0026589799
0.0030868698
0.0035992557
0.0034713165
0.0044897562
0.005863579
0.0076207353
0.0097517291
0.012209314
0.0022878414
0.0029945347
0.0034390721
0.0039390097
0.0037830679
0.0048220312
0.0062009303
0.0079372224
0.010015083
0.012387256
0.0026182973
0.003345974
0.0038080556
0.0042943371
0.0041015384
0.0051565516
0.0065358838
0.0082483461
0.010273566
0.012564991
0.0029766335
0.0037163444
0.0041933763
0.0046595717
0.0044262587
0.0054930468
0.0068687108
0.0085549892
0.010528131
0.012742812
0.003362672
0.004105771
0.0045945393
0.0050347259
0.0047568207
0.0058313376
0.0071996886
0.008857814
0.010779557
0.012921021
0.0037757369
0.0045136711
0.0050111145
0.0054201017
0.0050927871
0.0061712719
0.0075290272
0.0091573911
0.011028585
0.013100092
0.0042145084
0.0049394986
0.0054422158
0.0058158371
0.0054338413
0.0065128034
0.0078571041
0.0094543041
0.011275691
0.013280325
0.0046779195
0.0053822471
0.0058793258
0.0062223712
0.005779665
0.006855879
0.0081841345
0.0097490265
0.01152133
0.013461854
0.0051657307
0.0058413215
0.0063212475
0.0066399104
0.0061299331
0.0072004031
0.0085102977
0.010041961
0.011765908
0.013644739
0.0056766173
0.0063099822
0.0067764506
0.0070688276
0.0064843448
0.0075463063
0.0088358275
0.010333518
0.012009919
0.013829258
0.006169577
0.0067928648
0.0072447953
0.0075093825
0.0068426455
0.007893575
0.0091610658
0.010624176
0.012253749
0.014015659
0.0066583298
0.0072888955
0.007726096
0.0079617818
0.0072046194
0.0082422754
0.0094861008
0.010914117
0.012497615
0.014204019
0.0071582335
0.0077965786
0.0082202466
0.0084262866
0.0075699732
0.0085923261
0.0098110576
0.01120358
0.012741705
0.014394328
0.0076618093
0.0083144098
0.0087271242
0.0089029816
0.0079384219
0.0089437033
0.010136201
0.01149299
0.012986452
0.014586834
0.0081661512
0.0088415256
0.0092464631
0.0093918682
0.0083097276
0.0092964021
0.010461752
0.011782588
0.013232043
0.014781678
0.0086789725
0.0093772085
0.0097780281
0.0098928436
0.0086837875
0.0096503792
0.010787669
0.012072404
0.013478513
0.014978802
0.0092061027
0.0099211981
0.010321712
0.010405827
0.0090603057
0.01000561
0.01111405
0.012362631
0.013726046
0.015178307
0.0097459765
0.010473378
0.010877272
0.010930669
0.009438997
0.010361963
0.011441094
0.012653638
0.013975018
0.015380402
0.010292091
0.011034256
0.011444475
0.011466813
0.0098198316
0.010719529
0.011768858
0.012945414
0.014225378
0.01558505
0.010839771
0.011603205
0.012022514
0.012014145
0.010202505
0.011078208
0.01209732
0.013237928
0.014477097
0.015792089
0.011389756
0.012177947
0.012611316
0.012572191
0.010586786
0.011437816
0.012426506
0.013531374
0.014730345
0.016001627
0.011941038
0.012758116
0.013203615
0.013140026
0.010972512
0.011798243
0.012756208
0.013825576
0.014984986
0.016213515
0.012491377
0.013342397
0.013777539
0.013717916
0.01135916
0.012159157
0.013086271
0.014120334
0.01524079
0.016427522
0.013039273
0.013918017
0.014354914
0.014306276
0.011745939
0.012518231
0.013414195
0.014413331
0.015495671
0.016641806
0.013581241
0.014489294
0.014932524
0.01489129
0.014915812
0.012881732
0.013744698
0.014708457
0.015752772
0.016858858
0.014124063
0.015061578
0.015511691
0.015480365
0.015496572
0.013247309
0.014079224
0.015008053
0.01601467
0.017081132
0.014668378
0.015634871
0.016092883
0.016099714
0.016091291
0.013612593
0.014414259
0.015309016
0.016278819
0.017306504
0.015210807
0.01620751
0.016675245
0.016732109
0.016694774
0.013977668
0.014749401
0.015610692
0.016544462
0.017534268
0.015749899
0.016778769
0.017257806
0.017371839
0.017304924
0.014342297
0.015084315
0.015912725
0.016811142
0.017763969
0.016262003
0.017347462
0.017839554
0.018017885
0.01792274
0.014705853
0.01541712
0.0162128
0.017076633
0.017993524
0.016659799
0.017910711
0.018418229
0.018673691
0.018528586
0.018554758
0.015754147
0.016515763
0.017344702
0.018225834
0.017056062
0.018471243
0.018994396
0.019317967
0.019132929
0.019160458
0.016091735
0.016821928
0.017617006
0.018462914
0.017452858
0.019029806
0.019568958
0.019962222
0.01974466
0.019778246
0.016427837
0.017127602
0.017889932
0.018701702
0.017832881
0.019574333
0.020141389
0.020540736
0.020382263
0.020403195
0.016762191
0.01743104
0.018161055
0.018939577
0.018186694
0.0201042
0.020709644
0.021091391
0.021053389
0.021010554
0.021093752
0.0177385
0.018435113
0.019180137
0.018527421
0.020628973
0.021261741
0.021638206
0.021706744
0.021615959
0.021705361
0.018045163
0.018710086
0.019422567
0.018857855
0.021148419
0.021807463
0.022180917
0.022362431
0.022235101
0.022305279
0.022449574
0.018989442
0.019668663
0.019182965
0.021663045
0.022348572
0.022719389
0.023008675
0.022838884
0.022904006
0.023051623
0.019267912
0.019916704
0.019501347
0.0221732
0.02286095
0.023254018
0.02365022
0.02349645
0.023513485
0.023662044
0.019544286
0.020164274
0.019802979
0.02267733
0.023353865
0.023783881
0.024179512
0.024155223
0.024126432
0.024256853
0.024481033
0.020414615
0.020088028
0.023174834
0.023840359
0.024307951
0.02468465
0.024806208
0.024727905
0.02486247
0.025052003
0.025341724
0.020361007
0.023657728
0.024321098
0.024826063
0.025184433
0.025446157
0.025367847
0.025454529
0.025641818
0.025903045
0.020621082
0.024016344
0.02479604
0.02533066
0.025678675
0.026076873
0.026014763
0.026041748
0.026232871
0.026482727
0.020864893
0.02436908
0.025265033
0.025816663
0.026167199
0.026563366
0.026650776
0.026641065
0.026811438
0.027059288
0.021088909
0.024712885
0.025711571
0.026295212
0.026648585
0.027024864
0.027279105
0.027284878
0.027385122
0.027634699
0.021299387
0.025048421
0.026128551
0.026724862
0.027121766
0.027478537
0.027895775
0.0279151
0.02798157
0.028191627
0.021504905
0.025380416
0.026540172
0.027133854
0.027587587
0.027925743
0.028321443
0.028524292
0.028597638
0.028726278
0.021707961
0.025671952
0.026947214
0.027539025
0.028029289
0.028366906
0.028742064
0.029114999
0.029192175
0.029317164
0.021909691
0.025554068
0.027350557
0.027941227
0.028459012
0.028802516
0.029158296
0.029561954
0.029769337
0.029894169
0.022140994
0.025465293
0.02775071
0.028340495
0.028868488
0.029232803
0.029570269
0.029953407
0.030331619
0.030455715
0.022641502
0.02540393
0.028112185
0.028719464
0.029229178
0.029653035
0.029978056
0.030341774
0.030745278
0.031004101
0.023123567
0.02536239
0.028329996
0.029071452
0.029589025
0.03004865
0.030381708
0.030726976
0.031110269
0.031527922
0.023589032
0.025339472
0.028554749
0.029422729
0.029947806
0.030440864
0.030781256
0.031108946
0.031473036
0.031870095
0.02403866
0.025334309
0.028785795
0.029773036
0.030305125
0.030784771
0.031168765
0.031487634
0.031833387
0.032210779
0.024473639
0.025345022
0.02902207
0.030122008
0.030660741
0.031108321
0.031534556
0.031863044
0.03219128
0.032549881
0.024894634
0.025371058
0.029263229
0.03046954
0.030972644
0.031432117
0.031897925
0.032235228
0.032546722
0.032887336
0.025303552
0.025406729
0.029060917
0.030751569
0.031281565
0.031755891
0.032203205
0.032579472
0.032899715
0.033223149
0.025702414
0.025450195
0.028788197
0.030896471
0.031591272
0.032079544
0.032497069
0.032919556
0.033250239
0.033557276
0.02609033
0.025504183
0.028550629
0.03105244
0.031901625
0.032381251
0.032792465
0.033226878
0.033573346
0.03388977
0.026466838
0.025600815
0.028348907
0.031219111
0.032212525
0.032656794
0.033089338
0.033495435
0.033892775
0.034216213
0.026831382
0.026066348
0.028182101
0.03139587
0.032523329
0.032935317
0.033387664
0.03376712
0.034181521
0.034517537
0.027184909
0.026509917
0.028046471
0.031432
0.032614212
0.033216609
0.033655491
0.034041858
0.034429974
0.034819441
0.027529407
0.026934671
0.027934658
0.031014519
0.032720633
0.033500667
0.033907743
0.034319566
0.034682957
0.035074073
0.027865177
0.027342079
0.027848378
0.030651076
0.0328432
0.03378729
0.034164858
0.034587451
0.034940306
0.035307497
0.02819155
0.027731777
0.027791341
0.030342292
0.032980689
0.033933823
0.034426537
0.034819448
0.035201987
0.035546643
0.028508568
0.028104637
0.027762691
0.030084437
0.033104475
0.034006341
0.034692645
0.035058113
0.035459172
0.035791404
0.028817195
0.02846246
0.027760291
0.029868332
0.032617874
0.034097879
0.034963287
0.035303217
0.035677103
0.036041648
0.029117923
0.028806515
0.028189308
0.029693416
0.032198629
0.034208361
0.035057291
0.035554406
0.035903275
0.036281015
0.029410522
0.029137204
0.028595961
0.029561229
0.031845662
0.034336712
0.035118618
0.035811651
0.036137365
0.036490834
0.02969558
0.029455736
0.028981184
0.029471144
0.031552055
0.034090086
0.035202021
0.036007907
0.03637922
0.036710208
0.029973832
0.029763456
0.029347553
0.029418711
0.031312611
0.033634376
0.035306708
0.036052545
0.036628684
0.036938982
0.030245587
0.030061142
0.029696768
0.029402588
0.031128103
0.033255258
0.035432586
0.036123393
0.03688136
0.037176991
0.030511031
0.030349303
0.030029901
0.029560437
0.030999442
0.032947253
0.035226956
0.036218181
0.036922616
0.037424121
0.030770663
0.030628841
0.030348706
0.02993684
0.030921146
0.032703363
0.034801532
0.036336657
0.036993133
0.037680575
0.031024956
0.030900568
0.03065485
0.030293642
0.030891222
0.03252517
0.034461071
0.036479179
0.037091049
0.037756095
0.031274475
0.031165345
0.030949771
0.030632876
0.030910203
0.032412529
0.034197992
0.036235766
0.037214963
0.037838321
0.031519891
0.031424134
0.031235003
0.030956953
0.030976142
0.032360805
0.034009008
0.035901195
0.037365611
0.037950897
0.031761777
0.031677742
0.031511802
0.031267803
0.031089487
0.032369524
0.03389542
0.0356576
0.037542709
0.038093023
0.032000692
0.031926921
0.031781295
0.031567085
0.031287184
0.032440004
0.033857929
0.035499474
0.037343445
0.038264312
0.0322377
0.032172928
0.032045121
0.031856993
0.031611058
0.032570636
0.033892043
0.035424378
0.037155226
0.038465244
0.032473894
0.032417057
0.032304987
0.032139949
0.031924089
0.032761164
0.033997897
0.035434375
0.037065682
0.038696608
0.032710338
0.03266049
0.032562284
0.032417603
0.032228279
0.033016017
0.034178801
0.035531332
0.037072131
0.038783269
0.032948665
0.032905011
0.032819106
0.032692521
0.032526789
0.033336385
0.034434585
0.035713501
0.037172674
0.038799925
0.033190831
0.033152706
0.033077791
0.032967394
0.032856952
0.033725137
0.034767081
0.035981723
0.03736951
0.038923306
0.033439193
0.033406037
0.033341016
0.033245173
0.033358567
0.03418573
0.035178836
0.036337861
0.037663822
0.039152986
0.033696694
0.03366805
0.033612024
0.033529409
0.033929549
0.034721372
0.035672439
0.036783523
0.0380561
0.039488454
0.03396695
0.033942457
0.033894699
0.033965584
0.034573864
0.035335254
0.036250177
0.037319982
0.038546476
0.039928832
0.034254255
0.034233622
0.034267464
0.034707378
0.035294687
0.036029662
0.036913442
0.037947594
0.03913416
0.040472293
0.034674524
0.034814505
0.035098341
0.035524538
0.03609325
0.036805333
0.037662052
0.038665126
0.039816756
0.04111527
0.035590947
0.035726952
0.036002592
0.036416392
0.036968819
0.037660788
0.038493641
0.039469171
0.040589617
0.041851848
0.036576868
0.036709147
0.036977337
0.037380102
0.037917931
0.038591767
0.039402968
0.040353319
0.041445013
0.042672778
0.037626251
0.037755115
0.038016442
0.038408945
0.038933117
0.039589889
0.040380581
0.041306917
0.042370356
0.043478832
0.038728307
0.038853829
0.039108409
0.039490783
0.040001415
0.040641171
0.041411274
0.042313291
0.043346435
0.044125406
0.039866098
0.039988155
0.040235696
0.040607466
0.041103857
0.041725616
0.042473798
0.043349729
0.044350017
0.044797736
0.041015932
0.041134215
0.041374051
0.041734184
0.04221491
0.042816823
0.043540762
0.044387003
0.045197533
0.045488517
0.042146985
0.042260996
0.04249207
0.042838949
0.043301797
0.043881017
0.04457718
0.045389071
0.045908279
0.046188724
0.043222459
0.04333156
0.043552537
0.043884133
0.044326372
0.044879438
0.045543611
0.046316551
0.046618841
0.046887548
0.044201342
0.044304812
0.044514201
0.044828267
0.045246891
0.045770042
0.046397591
0.047089144
0.047317192
0.047572733
0.045041696
0.04513881
0.045335119
0.045629417
0.046021457
0.046511007
0.047097791
0.04777581
0.047990818
0.048231707
0.045705598
0.045795732
0.045977694
0.046250345
0.046613341
0.047066298
0.047608756
0.048239007
0.048627903
0.048852928
0.046164725
0.046247452
0.046414224
0.046663998
0.046996378
0.047410889
0.047906948
0.048483857
0.049140222
0.049427078
0.046405372
0.046480544
0.046631867
0.04685842
0.047159804
0.04753552
0.047984958
0.048507389
0.049101968
0.049767634
0.046431834
0.046499594
0.046635806
0.04683969
0.047110884
0.047448923
0.047853235
0.048323144
0.048857869
0.049456528
0.046266784
0.046327562
0.046449597
0.046632251
0.046875229
0.047178147
0.047540532
0.047961824
0.048441386
0.048978507
0.04594756
0.046002008
0.046111246
0.046274763
0.046492348
0.046763718
0.047088521
0.04746635
0.047896741
0.048379179
0.045519477
0.045568387
0.045666477
0.045813346
0.046008869
0.046252869
0.04654513
0.046885397
0.047273385
0.047708789
0.045027876
0.04507208
0.045160749
0.045293573
0.045470487
0.045691408
0.045956232
0.046264842
0.046617114
0.047012919
0.044566468
0.044581462
0.044633433
0.044754507
0.044915825
0.045117352
0.045359127
0.045641034
0.045963054
0.046325253
0.04469492
0.044709262
0.044738495
0.044782497
0.044841369
0.044915267
0.045004387
0.045108983
0.045338752
0.04567301
0.044781241
0.044795
0.04482302
0.044865196
0.044921635
0.044992497
0.045077991
0.04517837
0.045293914
0.045424955
0.044837282
0.044850528
0.044877505
0.044918146
0.044972532
0.045040822
0.045123218
0.045219967
0.045331362
0.045457771
0.044873132
0.044885952
0.044912045
0.04495132
0.045003875
0.045069872
0.045149516
0.045243149
0.045351066
0.045473552
0.044895834
0.044908293
0.044933649
0.044971816
0.045022899
0.045087054
0.04516448
0.045255419
0.045360151
0.045479038
0.044910659
0.044922815
0.044947557
0.0449848
0.045034645
0.045097248
0.045172803
0.045261549
0.04536376
0.045479793
0.044921765
0.044933638
0.044957803
0.044994178
0.045042863
0.045104005
0.045177945
0.045264834
0.045364905
0.04547851
0.04493149
0.04494314
0.044966855
0.045002552
0.045050326
0.045110325
0.045182732
0.045267772
0.045365717
0.045477246
0.044941348
0.044952808
0.044976137
0.045011252
0.045058248
0.045117264
0.04518848
0.045272115
0.04536842
0.045477727
0.044952349
0.04496361
0.044986605
0.04502122
0.045067542
0.045125709
0.045195895
0.045278311
0.045373201
0.045480887
0.044965599
0.04497671
0.044999335
0.045033385
0.045078946
0.045136146
0.045205397
0.04528675
0.045380404
0.045486671
0.044981021
0.044992
0.045014358
0.045048005
0.045093023
0.045149536
0.045217702
0.045297711
0.045390147
0.045495125
0.044998678
0.04500954
0.045031662
0.045064953
0.04510949
0.045165394
0.045232816
0.045311941
0.045402979
0.045506394
0.045018471
0.04502923
0.045051142
0.045084117
0.045128227
0.04518359
0.045250351
0.045328688
0.045418805
0.045520981
0.045040369
0.04505103
0.045072744
0.045105416
0.045149116
0.045203951
0.045270061
0.045347661
0.045436959
0.045538191
0.045063803
0.04507444
0.045096106
0.045128704
0.045172184
0.045226599
0.045292195
0.045369134
0.045457599
0.045557849
0.045089111
0.045099658
0.045121142
0.045153465
0.045196693
0.045250928
0.045316122
0.045392524
0.045480364
0.045579892
0.045116623
0.045127075
0.045148365
0.045180393
0.045223219
0.04527694
0.045341677
0.045417517
0.045504627
0.045603414
0.045145907
0.045156285
0.045177428
0.045209234
0.045251762
0.045305104
0.045369378
0.045444727
0.04553137
0.045629536
0.045176774
0.045187063
0.045208024
0.045239556
0.045281714
0.045334582
0.045398271
0.045473027
0.045559061
0.045656757
0.045209572
0.045219798
0.045240642
0.045272006
0.04531394
0.045366528
0.045429878
0.045504119
0.0455894
0.045685996
0.045383734
0.045354557
0.045296179
0.045305267
0.045346863
0.045399024
0.045461895
0.045535813
0.045620722
0.045716834
0.04558173
0.045557452
0.045508886
0.045436836
0.045382353
0.045434361
0.045496988
0.045570351
0.045654591
0.045749909
0.045723625
0.045703818
0.045664201
0.045605539
0.045528735
0.045469769
0.04553194
0.045604872
0.045688946
0.04578408
0.045821994
0.045806395
0.045775109
0.045728873
0.045668504
0.045595124
0.045570353
0.045643122
0.045726605
0.045821032
0.045882688
0.045871307
0.045848407
0.04581366
0.045768172
0.045713272
0.045650342
0.045680874
0.045763773
0.045857667
0.045912839
0.04590524
0.045889933
0.045867125
0.045836138
0.045798583
0.045756164
0.04572104
0.045803929
0.045897536
0.045921296
0.045917135
0.045908735
0.045896241
0.045879794
0.045858138
0.04583441
0.045810138
0.045845889
0.045939427
0.045912628
0.045911536
0.045909297
0.045906015
0.045901937
0.045896604
0.045890066
0.04588553
0.045889557
0.045983115
0.045891431
0.04589323
0.045896809
0.045902214
0.045909515
0.045918801
0.045928073
0.045941179
0.045960454
0.046028439
0.045860361
0.045864825
0.045873772
0.045887194
0.045905116
0.045927573
0.045953288
0.045982697
0.046019792
0.046075451
0.045821985
0.045828909
0.045842818
0.045863649
0.045891386
0.04592601
0.045967491
0.046012175
0.046066199
0.04613083
0.045780598
0.045789635
0.045807792
0.045834978
0.045871162
0.045916316
0.045971172
0.046031878
0.046101484
0.046183224
0.045737837
0.045748929
0.04577124
0.045804629
0.045849027
0.045904346
0.04597047
0.046045473
0.046128265
0.046225202
0.045693371
0.045706366
0.045732528
0.045771668
0.045823679
0.045888426
0.045965736
0.046055358
0.046151072
0.046261663
0.045651299
0.045665853
0.045695155
0.045738994
0.045797254
0.045869784
0.045957006
0.046058618
0.046168503
0.046292208
0.045612191
0.045628329
0.045660845
0.045709483
0.045774093
0.04585448
0.045950401
0.04606155
0.046183528
0.046317811
0.045573624
0.045591241
0.045626767
0.045679901
0.045750457
0.045838196
0.045942821
0.046063964
0.046198784
0.046344077
0.045543843
0.045562572
0.045600336
0.045656821
0.045731832
0.045825124
0.045936387
0.046065245
0.046211184
0.046366933
0.045515814
0.045535785
0.045576086
0.045636361
0.045716383
0.045815865
0.045934448
0.046071696
0.046227063
0.046391972
0.04549487
0.04551573
0.045557823
0.045620779
0.045704365
0.045808288
0.04593218
0.046076821
0.046241217
0.046417449
0.045479656
0.045501575
0.045545842
0.045612051
0.04569994
0.04580918
0.045939359
0.046089975
0.046260417
0.046444976
0.045469985
0.045492613
0.045538308
0.045606652
0.045697379
0.045810153
0.045945756
0.046103458
0.046281867
0.046476872
0.045468984
0.045492541
0.045540159
0.045611385
0.04570593
0.04582343
0.045963431
0.046125378
0.046308612
0.046510712
0.045472575
0.0454967
0.045545463
0.045618401
0.04571522
0.045835552
0.045981015
0.046149488
0.046340112
0.046552148
0.045486483
0.045511463
0.045562007
0.045637623
0.045738003
0.045862763
0.046011419
0.046183387
0.046377971
0.046594443
0.045505064
0.045530514
0.045582004
0.045659033
0.045761288
0.045888378
0.046040805
0.04621826
0.046419092
0.046642569
0.045530942
0.045557111
0.045610102
0.045689392
0.045794662
0.045925514
0.046081518
0.04626363
0.046469792
0.04669928
0.045566566
0.045593349
0.045647616
0.045728828
0.045836667
0.045970734
0.046130537
0.046316863
0.046529533
0.046766451
0.04561247
0.045639987
0.045695798
0.04577935
0.045890334
0.046028368
0.046192977
0.046383582
0.046599498
0.046840025
0.045665926
0.04569384
0.045750445
0.045835184
0.045947739
0.046087721
0.046254643
0.046447919
0.046667342
0.046917049
0.045721593
0.045750385
0.045808858
0.045896442
0.046012843
0.046157706
0.046330589
0.046530957
0.046758173
0.047011584
0.045795102
0.045824309
0.045883614
0.045972439
0.046090483
0.04623738
0.046412676
0.046615823
0.046846169
0.047103055
0.045866823
0.045896419
0.045956504
0.046046493
0.046166504
0.046318687
0.046500474
0.046711391
0.046950872
0.047218346
0.045956622
0.045987226
0.046049458
0.046142723
0.046266746
0.046421198
0.046605676
0.046819689
0.047062653
0.047333979
0.046050079
0.046081122
0.046144235
0.046238812
0.046364569
0.046521166
0.046708188
0.046925135
0.04717729
0.047460285
0.046149237
0.046181376
0.04624683
0.046344985
0.046475597
0.046638388
0.046833016
0.047059067
0.047316041
0.047603439
0.046266898
0.046299545
0.046366018
0.046465691
0.04659831
0.046763582
0.04696115
0.047190579
0.04745135
0.047742951
0.046368937
0.046415205
0.046482651
0.046583772
0.046718305
0.046886873
0.047092735
0.047332099
0.047604559
0.047909729
0.046472406
0.046549946
0.046620142
0.04672546
0.046865678
0.047040557
0.047249804
0.047493059
0.047769894
0.048079899
0.046587297
0.046666957
0.046763925
0.046870924
0.047013355
0.04719097
0.047403459
0.047650446
0.047931483
0.048249344
0.046701879
0.046780512
0.046904838
0.047014851
0.047163459
0.047348924
0.047571016
0.047829457
0.04812391
0.048454074
0.046849127
0.046927486
0.047078334
0.047191783
0.047342874
0.047531416
0.04775716
0.048019808
0.048319
0.048654411
0.046999966
0.047077193
0.047233487
0.0473653
0.047518794
0.047710302
0.047939569
0.048206276
0.048510052
0.048865776
0.047149881
0.047226435
0.04738405
0.047544811
0.047707986
0.047911823
0.048156233
0.048441088
0.048766238
0.049131603
0.047365034
0.047441235
0.047595708
0.047777147
0.047943291
0.048150807
0.048399601
0.048689528
0.049020419
0.049392178
0.047579913
0.047654598
0.04780606
0.048005284
0.048174305
0.048385387
0.048638429
0.048933272
0.04926973
0.049647691
0.047793202
0.047866433
0.048015005
0.04822936
0.048401166
0.048615702
0.048872861
0.049172468
0.049514324
0.049898299
0.048004814
0.048076657
0.048222459
0.048439978
0.048624035
0.04884194
0.049103104
0.049407349
0.049754458
0.050144287
0.048214703
0.048285212
0.048428345
0.048641975
0.048843018
0.049064184
0.049329222
0.049637954
0.049990149
0.050387146
0.048422804
0.048492044
0.04863264
0.048842573
0.049059463
0.04930036
0.049589317
0.049926317
0.050311329
0.050744455
0.048714966
0.048785576
0.048929459
0.049144471
0.049385273
0.049629715
0.049922924
0.050264894
0.0506556
0.051095146
0.049036055
0.049104958
0.049245467
0.049455654
0.049705827
0.049953698
0.050251023
0.050597803
0.050994018
0.051439774
0.049353998
0.049421254
0.049558508
0.04976403
0.050021223
0.050272408
0.050573711
0.050925142
0.051326685
0.051778452
0.049668838
0.049734518
0.04986865
0.050069692
0.050331722
0.050586133
0.050891313
0.051247278
0.051654015
0.052111643
0.049980567
0.050044732
0.050175869
0.050372604
0.050634381
0.050894997
0.051203954
0.051564332
0.051976125
0.052439457
0.050289203
0.05035192
0.050480187
0.050672789
0.050929397
0.051199189
0.051511834
0.051876513
0.052293226
0.052786579
0.050594748
0.050656076
0.050781592
0.050970228
0.051238515
0.05153839
0.051882062
0.052282965
0.05274117
0.053256922
0.051017559
0.051081835
0.051214121
0.051413372
0.051679783
0.051985347
0.052332182
0.052736848
0.053199458
0.053720295
0.051462496
0.051525868
0.05165635
0.051852992
0.052116117
0.052425997
0.052775916
0.053184253
0.053651158
0.054176951
0.051902188
0.0519647
0.052093466
0.052287625
0.052547617
0.052860531
0.053213461
0.053625383
0.054096478
0.0546271
0.052336737
0.052398432
0.052525567
0.052717362
0.05297437
0.053289126
0.053644999
0.054060424
0.05453561
0.055070942
0.052766241
0.052827161
0.052952746
0.053142295
0.053396463
0.053711949
0.054070701
0.05448955
0.054968732
0.05550866
0.053190797
0.053250981
0.053375095
0.05356251
0.053813979
0.054129158
0.054490727
0.054912923
0.055396005
0.055940405
0.053610494
0.05366998
0.053792696
0.053978084
0.054226984
0.054540693
0.054905193
0.055336571
0.055870486
0.05647127
0.054054702
0.054118703
0.054251578
0.054452772
0.054723441
0.055065247
0.055468158
0.055936871
0.05647257
0.0570755
0.054644582
0.054708612
0.0548415
0.055042648
0.055313138
0.055654542
0.056059307
0.056529465
0.057066922
0.057671956
0.055227156
0.055291225
0.055424147
0.055625281
0.055895642
0.056236717
0.056643065
0.057114642
0.05765382
0.058260916
0.055802623
0.055866739
0.055999715
0.056200868
0.05647115
0.056811964
0.057219647
0.057692623
0.058233495
0.058842617
0.056371163
0.056435337
0.056568386
0.056769593
0.057039845
0.057380468
0.057789262
0.058263622
0.05880617
0.059417289
0.056932954
0.056997194
0.057130338
0.057331632
0.057601905
0.057942406
0.058352107
0.058827844
0.059372053
0.059985151
0.057488165
0.057552482
0.057685742
0.057887157
0.058157498
0.058497944
0.058908366
0.059385473
0.059931333
0.060546384
0.05803696
0.058101362
0.058234756
0.058436322
0.058706777
0.059047228
0.059458192
0.059936649
0.060484102
0.061122936
0.058579475
0.058643968
0.05877751
0.058979247
0.059250238
0.059616881
0.06005922
0.060573989
0.061161602
0.061821869
0.05922623
0.05929544
0.059439289
0.059656568
0.059947744
0.060313607
0.060754921
0.061268325
0.061854377
0.062512892
0.059916544
0.059985738
0.0601295
0.060346571
0.060637336
0.061002472
0.061442783
0.061954921
0.062539481
0.063196319
0.060599107
0.060668289
0.060811976
0.061028861
0.061319247
0.061683708
0.062122922
0.062634007
0.063217133
0.063872348
0.061274102
0.061343278
0.0614869
0.061703616
0.061993654
0.062357484
0.062795662
0.063309028
0.063920385
0.064604488
0.061955535
0.062028504
0.062180328
0.062409172
0.062714825
0.063097214
0.063556234
0.064089128
0.064694535
0.065371915
0.062746311
0.062818705
0.062969318
0.063196285
0.063499333
0.06387831
0.064333016
0.064861036
0.065460671
0.06613153
0.06352865
0.063600483
0.063749914
0.063975051
0.064275566
0.064651234
0.065101763
0.065625033
0.066219053
0.066883576
0.064302757
0.064374044
0.064522324
0.064745682
0.065043739
0.065416196
0.06586268
0.066381318
0.066969865
0.067628176
0.06506881
0.065139565
0.065286724
0.06550835
0.065804012
0.066173342
0.066615871
0.067158106
0.067771455
0.068452706
0.065870172
0.065944668
0.066099965
0.066333457
0.066644038
0.067030486
0.067491298
0.068023895
0.068624314
0.069291035
0.066771518
0.066844522
0.066996759
0.067225622
0.067529977
0.067908563
0.068359833
0.068881408
0.069469215
0.070121772
0.067663859
0.067735403
0.067884643
0.06810898
0.068407251
0.068778161
0.06922012
0.069730912
0.070306406
0.070945145
0.068547396
0.068617512
0.068763822
0.068983734
0.069276061
0.069639474
0.070072345
0.070572579
0.071136034
0.071761234
0.069422311
0.069491029
0.069634473
0.069850054
0.070136563
0.07049264
0.070916605
0.071428279
0.072011887
0.072652112
0.070324859
0.070397218
0.07054864
0.070775632
0.071076006
0.071447149
0.07188586
0.072388295
0.072948754
0.073563023
0.071357307
0.071426834
0.071572492
0.071790826
0.072079652
0.072436364
0.072857771
0.073340047
0.073877842
0.074466744
0.072380046
0.072446797
0.072586804
0.072796653
0.073074169
0.073416753
0.073821229
0.074283786
0.074799378
0.075363468
0.073393285
0.073457316
0.073591786
0.073793325
0.074059765
0.07438852
0.074776424
0.07521969
0.07571352
0.076253322
0.074397215
0.074458581
0.074587626
0.074781021
0.075036609
0.075351813
0.075723481
0.076147832
0.076633682
0.077181649
0.075391994
0.075450745
0.075574465
0.075770587
0.076039797
0.076368922
0.076752727
0.077184989
0.077658399
0.07816523