/*--------------------------------*- C++ -*----------------------------------*\
  =========                 |
  \\      /  F ield         | OpenFOAM: The Open Source CFD Toolbox
   \\    /   O peration     | Website:  https://openfoam.org
    \\  /    A nd           | Version:  7
     \\/     M anipulation  |
\*---------------------------------------------------------------------------*/
FoamFile
{
    version     2.0;
    format      ascii;
    class       volScalarField;
    location    "80000";
    object      YH2O;
}
// * * * * * * * * * * * * * * * * * * * * * * * * * * * * * * * * * * * * * //

dimensions      [0 0 0 0 0 0 0];

internalField   nonuniform List<scalar> 
87000
(
6.0910653e-07
6.852168e-07
8.8106028e-07
1.2904944e-06
2.1782407e-06
4.3976228e-06
1.1613294e-05
4.816932e-05
0.00043161796
0.0093713021
3.9588336e-06
4.3403632e-06
5.7932371e-06
8.8947797e-06
1.5720303e-05
3.258673e-05
8.3695107e-05
0.0003045268
0.0016157572
0.013623301
1.2555425e-05
1.3882714e-05
1.8621498e-05
2.8631454e-05
5.0298458e-05
0.00010226134
0.00025381133
0.00079745737
0.0032753265
0.017089307
2.9642775e-05
3.3229425e-05
4.4353757e-05
6.7658885e-05
0.00011729619
0.00023402123
0.00055288293
0.001549127
0.0052384966
0.019924229
5.8806272e-05
6.6711673e-05
8.8408341e-05
0.00013340641
0.00022787821
0.00044778044
0.00098769863
0.0024243726
0.0072914184
0.022050478
0.00010426731
0.00011885269
0.00015621047
0.00023278043
0.00039359862
0.00074478436
0.0015600483
0.0035376422
0.009281395
0.023610145
0.00017084104
0.00019405923
0.0002528076
0.00037280342
0.00062147691
0.0011267664
0.002250275
0.0047580671
0.011138815
0.024817304
0.00026195706
0.000296629
0.00038300988
0.00056069241
0.00090755804
0.0015909695
0.0030360802
0.0060358896
0.012848025
0.025823776
0.00038124368
0.00043007628
0.00055172351
0.00079839762
0.0012547045
0.0021398663
0.0037565979
0.0073278815
0.014406435
0.026688836
0.00053204575
0.00059807491
0.00076377603
0.0010854804
0.0016625183
0.0027569872
0.0046605275
0.0086060293
0.015821948
0.027444151
0.00071736749
0.00080399402
0.0010209191
0.0014183413
0.002126119
0.0034266427
0.0056056691
0.009856578
0.017118158
0.028131517
0.00094055127
0.0010511291
0.001324933
0.0018017091
0.0026508285
0.0041507613
0.0065780904
0.011071327
0.018314195
0.028771769
0.0012043693
0.0013422739
0.0016703523
0.0022339156
0.0032282536
0.004917125
0.0075696139
0.012250892
0.01943163
0.029383766
0.0015093724
0.0016799404
0.0020569214
0.002713046
0.0038520167
0.0055117128
0.008567167
0.013389942
0.020478051
0.029969452
0.001853722
0.002059452
0.0024897723
0.0032384078
0.0045128017
0.0063281396
0.0095638052
0.014484984
0.021457827
0.030526759
0.0022385273
0.0024867108
0.0029668061
0.003812878
0.005211274
0.0071694517
0.010557875
0.015542465
0.022385149
0.031065942
0.0026663323
0.0029594101
0.0034875329
0.0044305099
0.0059483771
0.0080315848
0.011547152
0.016566582
0.023269421
0.031591916
0.0031369008
0.0034640519
0.0040507292
0.0050893964
0.0067170963
0.0089112918
0.012530361
0.017561119
0.024118323
0.032109026
0.0036564842
0.0040103899
0.0046537814
0.0057850416
0.0075147738
0.0098060732
0.013507151
0.018529663
0.024938165
0.032620411
0.0042250841
0.0046010197
0.0052955166
0.0065120516
0.0083391574
0.01071649
0.014481081
0.019479689
0.025738309
0.033133094
0.0048433578
0.0052350171
0.0059862732
0.0072756148
0.0088559541
0.011633649
0.015446093
0.020408302
0.026517126
0.033642823
0.0055086709
0.0059116065
0.0067166956
0.0080698606
0.0097076905
0.012555799
0.016397752
0.021311706
0.027271092
0.034143764
0.0062115425
0.0066301418
0.0074850525
0.0088952577
0.010579516
0.01348502
0.01734117
0.022196777
0.028007575
0.034641399
0.0069568805
0.007389699
0.008290283
0.0097524234
0.011470132
0.014420523
0.018277884
0.023066848
0.028730434
0.035138457
0.0077449297
0.0081893756
0.0091314006
0.010637382
0.012378227
0.015361546
0.019208645
0.023924388
0.029442334
0.035635744
0.0085747672
0.009028142
0.010007291
0.01154882
0.013302658
0.016307593
0.020134239
0.02477125
0.030145462
0.036134119
0.0094450296
0.0099049495
0.010916971
0.012485793
0.014242203
0.01725823
0.021055246
0.02560903
0.03084188
0.036634902
0.010354013
0.010818967
0.011858456
0.013447048
0.015195976
0.018213335
0.021972732
0.026439357
0.03153293
0.037138937
0.011300629
0.011768386
0.012828578
0.014431754
0.016163087
0.019172764
0.022887286
0.027263558
0.032219876
0.037646598
0.012287346
0.012752821
0.013825195
0.015438609
0.017142626
0.020136239
0.023799413
0.028082759
0.03290385
0.038158051
0.013314587
0.013767951
0.014849633
0.016466609
0.018133755
0.021103572
0.024709768
0.028898109
0.033586234
0.038674072
0.01437837
0.01481429
0.015900315
0.017514613
0.019135759
0.022074724
0.025619309
0.029710949
0.034268112
0.039195349
0.015475236
0.015889781
0.016975609
0.018581567
0.020148033
0.023049878
0.026528282
0.030521782
0.034950096
0.039722104
0.016597946
0.016991478
0.018074025
0.019666467
0.021169763
0.02402881
0.027437037
0.031331279
0.035632703
0.04025431
0.017730553
0.018116423
0.01919408
0.020768059
0.022200144
0.025011452
0.028346314
0.032140627
0.036317149
0.040792664
0.0188676
0.019263006
0.020334244
0.021885311
0.023238515
0.025997789
0.029256733
0.0329505
0.037003954
0.041337555
0.02002798
0.020429913
0.021493044
0.0230172
0.024284589
0.026987703
0.030168171
0.033760982
0.037693217
0.041888821
0.021226196
0.021616816
0.022669336
0.024162521
0.025337538
0.027981125
0.031080909
0.034572613
0.038385454
0.042446741
0.022459666
0.02282369
0.023861976
0.025320427
0.026396567
0.028977684
0.031995499
0.035386427
0.039081716
0.043011905
0.023714409
0.024051819
0.025070127
0.026490018
0.02746159
0.029977629
0.032912109
0.036202392
0.039781861
0.043584215
0.024980773
0.025299905
0.026291848
0.027670523
0.028531754
0.030980688
0.033830671
0.037020427
0.040485801
0.044163217
0.026260049
0.026562958
0.027526851
0.028860757
0.029606415
0.031986346
0.03475126
0.037841065
0.041194014
0.044749209
0.027550607
0.027840359
0.028772097
0.030059235
0.030685106
0.032994299
0.035673286
0.038663816
0.041906126
0.045341759
0.02884925
0.029129313
0.030018391
0.031265896
0.031766374
0.034003613
0.036596322
0.039488118
0.042621493
0.045940231
0.03015531
0.030422489
0.031271438
0.032478168
0.032848015
0.035007775
0.037513374
0.040307495
0.04333428
0.046539486
0.031464122
0.031716248
0.03252379
0.033682814
0.035268724
0.03602432
0.038437639
0.041132824
0.04405328
0.047146481
0.032774696
0.033011975
0.033779973
0.034897984
0.036433157
0.037046671
0.039373154
0.041970653
0.04478569
0.04776808
0.03408839
0.034311459
0.035040299
0.036130724
0.037603032
0.038068208
0.040310095
0.042812305
0.045524398
0.048398342
0.035404792
0.035613438
0.036302706
0.037369961
0.038775575
0.039089154
0.041247324
0.043655951
0.046267277
0.04903529
0.036721923
0.036916454
0.037565066
0.038611269
0.039949133
0.040108845
0.042183925
0.0445006
0.047013059
0.049677657
0.038032917
0.038218564
0.038825169
0.039852959
0.041122859
0.041125551
0.043114632
0.045339772
0.04775552
0.050319621
0.03931311
0.039515208
0.040077817
0.041089336
0.042279911
0.043810282
0.044057138
0.046187016
0.048505186
0.050969288
0.040586699
0.040805703
0.041325201
0.042319617
0.043441383
0.044916212
0.045001221
0.047043223
0.04926669
0.051632303
0.041855583
0.042091646
0.042569116
0.043548273
0.044604592
0.046022933
0.045941148
0.047898063
0.050029942
0.052300087
0.043116137
0.043372263
0.043808181
0.044753177
0.045776403
0.047127663
0.046876173
0.048746642
0.050788155
0.052965308
0.044363617
0.044644076
0.045037672
0.045940531
0.046952808
0.048212038
0.049715738
0.049606465
0.051554563
0.053638039
0.045599102
0.045905741
0.046289858
0.04711998
0.048119537
0.049299746
0.050746118
0.050464042
0.052323532
0.054315998
0.046822397
0.047156596
0.047536703
0.048290288
0.049279713
0.050382918
0.051757686
0.053307185
0.053104767
0.055004212
0.048033961
0.048396188
0.048772848
0.049451617
0.05043103
0.05145907
0.052773238
0.054262748
0.053883506
0.055697869
0.049233694
0.049624982
0.049989786
0.050604748
0.051575445
0.052559376
0.05378893
0.055214025
0.054656391
0.056390212
0.050419045
0.050841631
0.051190168
0.051747398
0.052677348
0.053652346
0.054797386
0.056150716
0.057647306
0.05709031
0.051588446
0.052044787
0.052377181
0.052877422
0.053761812
0.054733804
0.055795165
0.057086817
0.05850619
0.060047196
0.052741908
0.05323375
0.053550008
0.053994684
0.054835014
0.055803887
0.056810074
0.058017051
0.05937252
0.060839983
0.053878652
0.054417874
0.054707848
0.055118394
0.055896547
0.056862786
0.057823843
0.058941129
0.060235161
0.061633115
0.054997192
0.05558528
0.055849842
0.056260881
0.056946023
0.057868995
0.058827259
0.059869422
0.061092618
0.062427235
0.056095339
0.056734437
0.056974188
0.057386306
0.057980083
0.058855296
0.059816962
0.060811841
0.061939427
0.063212128
0.057172797
0.057863767
0.058079285
0.058477755
0.058996486
0.059824899
0.060789696
0.06173767
0.062790205
0.06398256
0.058231461
0.058973434
0.059165484
0.059544991
0.059997556
0.060781407
0.06169507
0.062650082
0.06365269
0.064747634
0.059271957
0.060054358
0.06023312
0.060594335
0.061030656
0.061725794
0.06259086
0.063551365
0.064505893
0.065547123
0.060295227
0.061017768
0.061282726
0.061626496
0.062065116
0.062659177
0.063478444
0.064404352
0.065351752
0.06634411
0.061296927
0.061969567
0.062315044
0.062642305
0.063076963
0.06358194
0.064357955
0.065235879
0.066190775
0.067136451
0.062235964
0.062910497
0.063334368
0.063642718
0.064056605
0.064507633
0.065229465
0.066061939
0.066981978
0.067924133
0.06316185
0.063840042
0.064351084
0.064628249
0.065022176
0.065476181
0.066092964
0.066882229
0.067755413
0.068703222
0.064074643
0.064758474
0.065351792
0.065599395
0.065974252
0.066430644
0.066948424
0.067696574
0.068525163
0.069425595
0.064974869
0.065666178
0.066337136
0.066556723
0.066913421
0.067355115
0.067817263
0.068504772
0.069290787
0.070145927
0.065862838
0.066563281
0.067307675
0.067500646
0.067839978
0.068260156
0.068725839
0.069306781
0.070052147
0.070863973
0.066739104
0.067450152
0.068263942
0.068431662
0.068754359
0.069153834
0.069622337
0.070102642
0.070809188
0.071579603
0.06760322
0.068326345
0.069098707
0.069355855
0.06965668
0.070036454
0.070486572
0.070959223
0.071561919
0.072292772
0.068454343
0.069191569
0.069902086
0.070279994
0.070547106
0.070908066
0.071335903
0.071812172
0.072310227
0.073003346
0.069293366
0.070046504
0.070699725
0.071190732
0.071426007
0.071768985
0.072175543
0.072643008
0.073121862
0.073711427
0.070121477
0.070885478
0.071492166
0.072088588
0.072293832
0.072619642
0.073005886
0.073450071
0.07393288
0.074429177
0.070940187
0.07163964
0.072279829
0.072974215
0.073151214
0.073460559
0.073827403
0.074249405
0.074724047
0.075208835
0.071750126
0.072390066
0.073062763
0.073812421
0.074019052
0.074292256
0.074640608
0.075041506
0.075492541
0.075981251
0.072550643
0.073135675
0.073840218
0.074528426
0.074875852
0.075115081
0.075445891
0.075826702
0.076255334
0.076729461
0.073342183
0.073876419
0.074612726
0.075244761
0.075722139
0.07592962
0.076243773
0.076605506
0.077012871
0.077463649
0.074126448
0.074614272
0.075381556
0.075962258
0.07655885
0.076749787
0.077034918
0.07737854
0.07776568
0.078194378
0.074904786
0.075350337
0.076147312
0.076681032
0.077380235
0.077570208
0.077820046
0.078146491
0.078514464
0.078922216
0.075677854
0.076084952
0.076910472
0.077400396
0.078043614
0.078382828
0.078599717
0.078909991
0.079259868
0.079647742
0.076446451
0.076818568
0.077573499
0.078120803
0.078712986
0.07918856
0.079391507
0.079669726
0.080002487
0.080371603
0.077212504
0.077552918
0.078243233
0.078843389
0.079389117
0.079988536
0.080183094
0.080426678
0.080743295
0.081094709
0.077977328
0.078288991
0.078920842
0.07956907
0.080071909
0.080689481
0.080970348
0.081187957
0.081483167
0.081817917
0.078742077
0.079027629
0.079606463
0.080298085
0.080761396
0.081332518
0.081754366
0.081962916
0.082223023
0.082542101
0.079508458
0.079770313
0.080301101
0.081031228
0.081458667
0.081987638
0.082536363
0.082736315
0.082964462
0.083268414
0.080278655
0.080519146
0.081006824
0.081734625
0.082165188
0.082655288
0.083233108
0.083509668
0.083728545
0.083997985
0.081054772
0.081276018
0.081725037
0.082395302
0.082881355
0.083335527
0.083873175
0.084284282
0.084494305
0.084732124
0.081839179
0.082043121
0.082457359
0.083075666
0.083608226
0.08402996
0.084531357
0.085061791
0.085263614
0.085490013
0.082634486
0.082822914
0.083205955
0.083777753
0.08434753
0.084740204
0.085208078
0.085745704
0.086038151
0.08625584
0.083443487
0.083618012
0.083973074
0.084503216
0.085100658
0.085467162
0.08590438
0.086408753
0.086819698
0.087029313
0.084269537
0.08443164
0.084761691
0.085254651
0.085869584
0.086212626
0.086622309
0.087096753
0.087610437
0.087812589
0.085116625
0.085267696
0.085575525
0.086035543
0.086646779
0.08697897
0.087364135
0.08781097
0.088315755
0.088607855
0.085988709
0.086130021
0.086418197
0.0868492
0.087422206
0.087768336
0.088131479
0.088553273
0.089031472
0.089417722
0.086890151
0.087022813
0.087293547
0.087698744
0.088237793
0.088583018
0.088926657
0.089326269
0.089780875
0.090244738
0.08782644
0.087951529
0.088207008
0.088589654
0.08909907
0.089426659
0.08975313
0.090133177
0.090566419
0.091049805
0.088803057
0.08892154
0.089163704
0.089526653
0.09001025
0.090302475
0.090613858
0.090976657
0.09139069
0.091853882
0.089825991
0.089938737
0.090169344
0.090515206
0.090965789
0.091214211
0.091512384
0.091860048
0.092257202
0.092702622
0.09090173
0.091009538
0.091230198
0.091561452
0.091927192
0.092165942
0.092452601
0.092787103
0.093169569
0.093599357
0.092037001
0.092140596
0.092352775
0.092671663
0.092931511
0.093161901
0.093438611
0.093761728
0.094131469
0.094547547
0.093238483
0.093338502
0.093543551
0.093804994
0.093983256
0.094206446
0.094474594
0.094787899
0.095146653
0.095550734
0.094512823
0.094609886
0.094783959
0.094913597
0.095086911
0.095303879
0.09556466
0.095869509
0.09621877
0.096612336
0.095827613
0.095867463
0.095951214
0.096077646
0.096246617
0.096458213
0.096712625
0.097010142
0.097351148
0.097735415
0.09705644
0.097095394
0.097177259
0.097300824
0.097466008
0.097672912
0.097921748
0.098212826
0.098546541
0.098922438
0.098346769
0.098384894
0.098465056
0.098586083
0.0987479
0.09895062
0.09919446
0.099479731
0.099806827
0.10017495
0.099700495
0.099737865
0.099816473
0.099935167
0.10009388
0.10029272
0.10053189
0.10081172
0.10113246
0.1014725
0.10111794
0.10115459
0.10123169
0.10134812
0.10150381
0.10169884
0.10193343
0.10220784
0.10252199
0.10278326
0.10259727
0.10263316
0.10270872
0.10282281
0.10297535
0.10316642
0.10339618
0.10366488
0.10397197
0.1041541
0.10413416
0.10416924
0.1042431
0.10435464
0.10450373
0.10469044
0.10491489
0.10517714
0.10543932
0.10558453
0.10572113
0.10575529
0.10582722
0.10593583
0.10608098
0.10626269
0.10648104
0.10673581
0.10692848
0.10707206
0.10734761
0.1073807
0.10745039
0.1075556
0.10769617
0.10787206
0.10808331
0.1083295
0.10847058
0.10861218
0.10899999
0.10903183
0.10909891
0.10920015
0.10933538
0.10950452
0.1097075
0.10993472
0.11005855
0.1101977
0.11066181
0.11069221
0.11075628
0.11085296
0.11098204
0.11114342
0.11133699
0.11156144
0.11168261
0.11181874
0.11231478
0.11234357
0.11240426
0.11249581
0.11261803
0.11277074
0.11295383
0.11316693
0.11333035
0.11346281
0.11394027
0.1139673
0.1140243
0.11411028
0.11422502
0.11436836
0.11454012
0.11474012
0.11496804
0.11511523
0.1155207
0.11554589
0.11559903
0.11567918
0.11578613
0.11591971
0.11607973
0.11626601
0.11647832
0.11671639
0.11704162
0.11706495
0.11711417
0.11718843
0.11728752
0.11741128
0.11755952
0.11773207
0.11792871
0.11814922
0.11849248
0.11851399
0.11855941
0.11862794
0.11871939
0.11883363
0.11897049
0.11912982
0.11931143
0.11951513
0.1198677
0.1198875
0.11992934
0.1199925
0.1200768
0.12018213
0.12030836
0.12045536
0.120623
0.12081111
0.12116579
0.12118404
0.12122264
0.12128092
0.12135873
0.121456
0.12157262
0.1217085
0.12186355
0.12203766
0.12238876
0.12240563
0.12244136
0.12249534
0.12256743
0.12265758
0.12276572
0.1228918
0.12303575
0.12319752
0.12350163
0.12353544
0.12358938
0.1236396
0.1237067
0.12379063
0.1238914
0.12400892
0.12414317
0.12429414
0.12411175
0.12414308
0.12420732
0.12430394
0.12443288
0.12459417
0.12478784
0.12501397
0.12519018
0.12533181
0.12468178
0.12471099
0.12477095
0.12486116
0.1249816
0.12513236
0.12531351
0.12552518
0.12576751
0.12604064
0.12522394
0.12525137
0.12530775
0.12539263
0.125506
0.12564793
0.12581856
0.12601802
0.12624649
0.12650424
0.12574699
0.12577294
0.12582631
0.12590665
0.12601399
0.12614843
0.12631009
0.12649922
0.12671601
0.1269607
0.12625601
0.12628069
0.12633151
0.12640804
0.12651031
0.12663842
0.12679252
0.12697281
0.12717949
0.12741288
0.12675386
0.12677746
0.12682611
0.12689938
0.12699731
0.12712
0.12726763
0.12744038
0.12763847
0.12786223
0.1272422
0.12726485
0.12731158
0.12738198
0.12747609
0.12759401
0.12773602
0.12790224
0.12809288
0.12830827
0.12772141
0.12774325
0.12778835
0.12785629
0.12794711
0.12806094
0.12819792
0.12835825
0.12854217
0.12875023
0.12819137
0.1282125
0.12825615
0.12832193
0.12840988
0.12852009
0.12865274
0.12880801
0.12898611
0.12918738
0.1286517
0.12867218
0.12871456
0.12877842
0.12886381
0.12897082
0.12909962
0.12925037
0.12942331
0.12961873
0.12910243
0.12912234
0.12916351
0.12922557
0.12930853
0.1294125
0.12953782
0.12968454
0.12985284
0.13004301
0.12954301
0.12956241
0.12960254
0.12966303
0.1297439
0.12984524
0.1299672
0.13010993
0.13027394
0.13045934
0.12997311
0.12999204
0.13003122
0.13009028
0.13016924
0.13026819
0.13038726
0.13052661
0.13068642
0.13086711
0.13039244
0.13041094
0.13044926
0.13050701
0.13058423
0.13068098
0.1307974
0.13093364
0.13108988
0.13126637
0.13080086
0.13081897
0.13085649
0.13091304
0.13098864
0.13108336
0.13119732
0.13133069
0.13148364
0.1316564
0.13119374
0.13121208
0.13125004
0.13130724
0.13138249
0.13147536
0.13158709
0.13171781
0.13186768
0.13203694
0.13157568
0.13159368
0.13163093
0.13168707
0.1317621
0.1318561
0.13196647
0.13209476
0.13224182
0.13240788
0.13194752
0.13196518
0.13200177
0.1320569
0.13213058
0.13222288
0.13233388
0.13246149
0.13260586
0.1327689
0.13230936
0.13232673
0.1323627
0.13241691
0.13248935
0.13258009
0.13268922
0.13281685
0.13296051
0.13312077
0.13266137
0.13267844
0.13271381
0.13276712
0.13283836
0.13292758
0.13303486
0.13316037
0.13330424
0.13346292
0.13300399
0.13302079
0.13305562
0.13310812
0.13317828
0.13326615
0.13337182
0.13349536
0.1336369
0.13379616
0.13312687
0.13320194
0.13335469
0.13343958
0.13350866
0.13359517
0.13369921
0.13382099
0.1339605
0.13411791
0.13312292
0.13319937
0.13335482
0.1335893
0.13383083
0.13391622
0.13401887
0.13413886
0.13427628
0.13443131
0.13310953
0.13318721
0.13334514
0.13358323
0.13390264
0.1342281
0.1343293
0.13444764
0.13458335
0.13473644
0.13309087
0.13316943
0.13332959
0.13357097
0.13389471
0.13430224
0.13463295
0.13474989
0.13488373
0.13503467
0.13307302
0.13315141
0.13331064
0.13355368
0.13388104
0.13429309
0.13479121
0.13504345
0.1351755
0.13532445
0.13305218
0.13313154
0.13329269
0.13353528
0.13386427
0.13428024
0.1347832
0.13533046
0.13546115
0.13560834
0.13303072
0.13311096
0.13327385
0.13351897
0.13384708
0.13426593
0.13477265
0.13536784
0.1357403
0.13588593
0.13300995
0.13309094
0.13325529
0.13350253
0.1338334
0.13425123
0.13476096
0.13535992
0.13601329
0.13615744
0.13299115
0.13307285
0.13323861
0.13348789
0.13382125
0.13423949
0.13474991
0.13535101
0.13604202
0.13642306
0.13297477
0.13305712
0.13322414
0.13347523
0.13381086
0.13423169
0.13474111
0.13534356
0.13603601
0.13668317
0.13296131
0.13304423
0.1332124
0.13346514
0.1338028
0.13422595
0.13473518
0.13533827
0.13603149
0.13681407
0.13295256
0.1330359
0.13320489
0.13345877
0.13379782
0.13422245
0.13473373
0.13533534
0.13602818
0.13681023
0.13294901
0.13303281
0.13320268
0.1334578
0.13379833
0.13422455
0.13473672
0.13533643
0.13602737
0.13680799
0.13294969
0.13303389
0.13320455
0.13346078
0.13380262
0.1342302
0.13474358
0.13534271
0.1360318
0.13680935
0.13295698
0.13304138
0.13321242
0.13346912
0.13381144
0.13423936
0.13475331
0.13535294
0.13603934
0.13681336
0.13297114
0.13305582
0.1332274
0.13348483
0.13382793
0.13425653
0.13477034
0.13536882
0.13605169
0.13682058
0.13298953
0.13307447
0.13324657
0.13350467
0.13384848
0.13427765
0.13479166
0.13538973
0.13607055
0.13683475
0.13301939
0.1331043
0.1332763
0.13353417
0.13387751
0.13430585
0.13481849
0.13541451
0.13609276
0.13685226
0.13305416
0.13313923
0.13331153
0.13356975
0.13391336
0.1343417
0.13485386
0.13544859
0.13612416
0.1368771
0.13309882
0.13318372
0.13335566
0.13361325
0.13395587
0.13438272
0.13489275
0.13548578
0.13615926
0.13690808
0.13315242
0.13323739
0.13340947
0.13366717
0.13400975
0.13443622
0.13494526
0.1355352
0.13620377
0.13694631
0.13321437
0.13329906
0.13347052
0.13372723
0.13406833
0.13449271
0.13500033
0.13558891
0.13625503
0.13699396
0.13328913
0.13337383
0.13354534
0.13380202
0.13414289
0.13456665
0.13507162
0.13565565
0.13631602
0.13704856
0.13337132
0.13345562
0.13362629
0.13388163
0.13422058
0.13464173
0.13514589
0.13572858
0.13638654
0.13711632
0.13346926
0.13355356
0.13372425
0.13397955
0.13431825
0.13473877
0.13523909
0.13581664
0.13646823
0.13719027
0.13357497
0.13365876
0.13382841
0.13408207
0.13441846
0.1348359
0.1353336
0.13590905
0.13655751
0.13727512
0.13369292
0.13377658
0.13394601
0.13419925
0.13453493
0.1349512
0.13544586
0.13601801
0.13666212
0.13737411
0.13382697
0.13391033
0.13407917
0.13433147
0.13466576
0.13508009
0.135572
0.13614028
0.13678159
0.13748969
0.13397847
0.13406169
0.13423031
0.13448223
0.13481586
0.13522915
0.13571947
0.13628357
0.13691753
0.13761695
0.13414324
0.13422576
0.13439294
0.13464265
0.13497325
0.13538262
0.13586806
0.13642623
0.13705377
0.13775196
0.13431276
0.13439541
0.13456295
0.13481314
0.13514422
0.13555393
0.13603939
0.13659708
0.13722281
0.13791186
0.13451358
0.1345954
0.13476125
0.13500888
0.13533649
0.13574177
0.1362218
0.13677302
0.13739115
0.13807145
0.13471236
0.13479338
0.13495759
0.13520273
0.13552766
0.13593379
0.13641444
0.13696584
0.13758355
0.13826264
0.13494365
0.1350247
0.13518911
0.1354345
0.13575895
0.13615995
0.13663442
0.13717856
0.13778794
0.1384576
0.13518245
0.13526254
0.135425
0.13566745
0.13598795
0.136384
0.1368525
0.13738967
0.13799829
0.1386675
0.1354322
0.1355124
0.13567523
0.13591818
0.13623917
0.13663555
0.13710405
0.13764071
0.13824093
0.13889963
0.1357155
0.13579451
0.13595493
0.13619428
0.13651049
0.13690095
0.13736239
0.13789093
0.13848199
0.13913056
0.13589435
0.13607343
0.13623152
0.13646739
0.13677899
0.13716507
0.13762704
0.13815553
0.13874578
0.1393926
0.13598732
0.13638546
0.13654352
0.13677927
0.13709054
0.13747455
0.13792793
0.13844665
0.13902605
0.13966108
0.13613346
0.13652904
0.1368672
0.1370986
0.13740412
0.13778108
0.13822615
0.13873542
0.13930436
0.13993102
0.13630951
0.13667966
0.13718727
0.13741656
0.1377222
0.13809889
0.13854307
0.1390506
0.13961671
0.14023633
0.13656707
0.13691284
0.13755859
0.13778477
0.13808317
0.13845102
0.13888489
0.13938079
0.13993415
0.14054007
0.13685666
0.1371774
0.13782425
0.13814909
0.13844052
0.13879983
0.13922374
0.13970841
0.14024944
0.14085363
0.13716842
0.13746561
0.13806923
0.13852167
0.13881487
0.13917557
0.13960003
0.14008391
0.1406224
0.1412104
0.13759001
0.1378648
0.13842046
0.13896432
0.13924754
0.13959607
0.14000644
0.14047455
0.14099586
0.14156561
0.13803029
0.13828193
0.13879145
0.13940254
0.1396761
0.14001287
0.14040959
0.14086242
0.14136709
0.14191914
0.13848556
0.13871494
0.13918007
0.13983628
0.1401005
0.1404259
0.14080941
0.14124744
0.14173597
0.14227083
0.13895397
0.13916195
0.13958438
0.14021669
0.14052076
0.14083518
0.14120593
0.14162964
0.14210256
0.14262077
0.13943392
0.13962134
0.14000267
0.14057464
0.14093681
0.14124061
0.14159899
0.14200882
0.14246658
0.14296942
0.13992392
0.14009158
0.14043345
0.14094747
0.14134982
0.1416575
0.14201859
0.14242905
0.14288442
0.14338018
0.14048955
0.14064222
0.14095486
0.14142686
0.14186309
0.14215441
0.14249649
0.14288565
0.1433178
0.14378881
0.14108473
0.14122123
0.14150144
0.14192547
0.14237166
0.1426471
0.14297073
0.14333918
0.14374873
0.14419562
0.14168319
0.14180416
0.14205319
0.14243105
0.14287545
0.14313547
0.14344118
0.1437895
0.14417707
0.14460049
0.14228423
0.14239028
0.14260937
0.14294289
0.14337459
0.14361966
0.14390799
0.14423679
0.144603
0.14500358
0.14288709
0.14297882
0.14316915
0.14346006
0.14385704
0.14409961
0.14437109
0.14468093
0.1450264
0.14540477
0.14349112
0.1435691
0.14373182
0.14398181
0.14432519
0.14457538
0.14483051
0.14512195
0.14544725
0.14580983
0.14409573
0.14416051
0.14429671
0.14450738
0.14480614
0.14506371
0.14531212
0.14559382
0.14590554
0.14624396
0.14471329
0.14476992
0.14489047
0.14507953
0.14534566
0.14559581
0.14582315
0.146081
0.14636642
0.14667642
0.14533013
0.14537924
0.14548445
0.14565015
0.14588455
0.14612346
0.14633033
0.146565
0.14682482
0.14710714
0.14594281
0.14598471
0.14607521
0.14621853
0.14642252
0.14664667
0.14683364
0.14704577
0.14728069
0.14753605
0.1465512
0.1465862
0.1466626
0.14678445
0.14695928
0.14716545
0.14733309
0.14752329
0.14773397
0.14796308
0.1471552
0.14718358
0.14724644
0.14734772
0.14749459
0.14767982
0.14782866
0.14799753
0.14818463
0.14838815
0.14775471
0.14777673
0.14782662
0.14790815
0.1480282
0.1481898
0.14832036
0.14846849
0.14863261
0.1488112
0.14834967
0.14836559
0.14840303
0.14846561
0.14855991
0.14869462
0.14880819
0.14893564
0.149073
0.14922111
0.14893118
0.14894027
0.14896401
0.14900695
0.14907671
0.14918308
0.14928037
0.14938436
0.14949837
0.14962061
0.14946169
0.14946796
0.14948573
0.14951917
0.14957522
0.14966284
0.14974605
0.14982988
0.14992117
0.15001823
0.14998662
0.14999017
0.15000223
0.15002656
0.15006948
0.15013915
0.15020798
0.1502722
0.15034137
0.15041394
0.15050603
0.15050698
0.15051355
0.15052914
0.15055949
0.15061196
0.15066618
0.15071131
0.15075896
0.15080768
0.15102
0.15101844
0.15101975
0.15102696
0.15104525
0.15108125
0.15112066
0.15114721
0.15117391
0.1511994
0.15152861
0.15152465
0.1515209
0.15152006
0.15152678
0.151547
0.15157144
0.1515799
0.15158619
0.15158905
0.15203194
0.15202567
0.15201706
0.15200849
0.15200411
0.15200918
0.15201856
0.15200939
0.15199579
0.1519766
0.15253009
0.15252161
0.15250831
0.15249231
0.15247726
0.15246781
0.15246204
0.1524357
0.15240274
0.15235363
0.15302317
0.15301254
0.15299474
0.15297159
0.15294613
0.15291228
0.1528797
0.15282331
0.15275672
0.15267883
0.15346357
0.15344909
0.15342306
0.15338731
0.1533449
0.15329974
0.15325466
0.15318333
0.1530996
0.15300236
0.15387746
0.15386131
0.15383177
0.15379044
0.15374002
0.15368397
0.15362618
0.15354066
0.15344024
0.15332415
0.15428709
0.15426932
0.15423639
0.15418967
0.15413153
0.15406497
0.15399335
0.1538953
0.15377861
0.15364416
0.15469253
0.15467321
0.15463699
0.15458505
0.15451945
0.15444276
0.15435782
0.15424556
0.15409703
0.15392684
0.15508747
0.15506483
0.15502146
0.15495845
0.15487757
0.15478106
0.15467143
0.15453483
0.15437128
0.15418402
0.15542444
0.15540029
0.15535376
0.1552858
0.15519795
0.15509214
0.15497053
0.15482207
0.15464387
0.15443995
0.15575809
0.15573246
0.15568286
0.1556101
0.15551549
0.15540068
0.15526745
0.15510724
0.15491473
0.15469458
0.15608845
0.15606139
0.1560088
0.15593138
0.15583021
0.15570667
0.1555622
0.15539031
0.15518386
0.1549479
0.1564156
0.15638714
0.15633165
0.15624969
0.15614216
0.15601016
0.15585483
0.15565455
0.15541408
0.15513954
0.15671888
0.15668683
0.15662359
0.15652971
0.15640588
0.15625296
0.15607184
0.15585923
0.15560539
0.15531572
0.15696746
0.15693397
0.15686777
0.15676932
0.15663918
0.15647805
0.1562866
0.15606269
0.15579579
0.15549132
0.15721374
0.15717885
0.15710975
0.15700684
0.15687057
0.15670144
0.15649994
0.15626487
0.15598519
0.15566625
0.15745774
0.15742148
0.15734956
0.15724231
0.15710004
0.15692312
0.15671184
0.15646573
0.15617357
0.15584054
0.15769952
0.15766192
0.15758724
0.15747574
0.15732764
0.15714314
0.15692237
0.15665054
0.15632128
0.15594602
0.15792102
0.15787939
0.15779602
0.15767122
0.15750509
0.15729767
0.15704893
0.1567587
0.15641792
0.15602905
0.15807113
0.15802812
0.15794191
0.15781282
0.15764085
0.15742596
0.15716803
0.15686674
0.15651457
0.15611235
0.15822
0.15817563
0.15808666
0.15795336
0.15777568
0.1575535
0.15728658
0.15697453
0.15661107
0.15619577
0.15836761
0.15832191
0.15823024
0.15809282
0.15790955
0.15768024
0.15740455
0.15708197
0.15670735
0.15627926
0.15851399
0.158467
0.15837266
0.15823121
0.15804248
0.1578062
0.15752195
0.15718915
0.15679202
0.15631736
0.15865919
0.15861093
0.158514
0.1583624
0.1581533
0.15789135
0.15757611
0.15720699
0.15678064
0.15629428
0.15871194
0.15865906
0.15855218
0.15839167
0.1581773
0.15790874
0.15758551
0.15720698
0.1567704
0.1562725
0.15874891
0.15869477
0.15858534
0.158421
0.15820149
0.15792646
0.15759539
0.15720764
0.15676096
0.15625173
0.1587857
0.15873033
0.15861841
0.15845031
0.15822576
0.15794438
0.15760564
0.15720885
0.15675222
0.15623185
0.1588223
0.15876573
0.15865135
0.15847955
0.15825006
0.15796245
0.15761617
0.15721052
0.15674408
0.15621288
0.15885874
0.15880098
0.15868419
0.15850876
0.15827441
0.1579807
0.15762711
0.1571868
0.15667422
0.15609235
0.15886671
0.15880357
0.15867518
0.15848221
0.15822448
0.15790172
0.15751358
0.15705963
0.15653942
0.15594926
0.15876963
0.15870546
0.15857498
0.15837889
0.15811706
0.15778921
0.15739503
0.15693413
0.15640608
0.15580781
0.1586737
0.15860856
0.15847613
0.15827713
0.15801144
0.15767881
0.15727893
0.15681144
0.15627595
0.15566993
0.15857863
0.1585125
0.15837809
0.15817614
0.15790653
0.15756904
0.15716337
0.1566892
0.15614616
0.1555322
0.1584845
0.15841741
0.15828106
0.15807621
0.15780274
0.15746047
0.15704911
0.15656838
0.15601795
0.15539631
0.15839126
0.15832321
0.15818493
0.1579772
0.15769993
0.15735294
0.15693545
0.15641791
0.15582689
0.15516224
0.15826678
0.15819379
0.15804486
0.1578211
0.15752263
0.15714955
0.15670204
0.15618035
0.1555849
0.15491615
0.15805007
0.15797635
0.15782596
0.15760006
0.15729883
0.15692245
0.15647114
0.15594528
0.15534539
0.15467246
0.15783536
0.15776092
0.1576091
0.15738109
0.15707714
0.15669749