/*--------------------------------*- C++ -*----------------------------------*\
  =========                 |
  \\      /  F ield         | OpenFOAM: The Open Source CFD Toolbox
   \\    /   O peration     | Website:  https://openfoam.org
    \\  /    A nd           | Version:  7
     \\/     M anipulation  |
\*---------------------------------------------------------------------------*/
FoamFile
{
    version     2.0;
    format      ascii;
    class       volScalarField;
    location    "80000";
    object      YO2;
}
// * * * * * * * * * * * * * * * * * * * * * * * * * * * * * * * * * * * * * //

dimensions      [0 0 0 0 0 0 0];

internalField   nonuniform List<scalar> 
87000
(
2.4553339e-08
2.7622093e-08
3.5519707e-08
5.2033685e-08
8.7855369e-08
1.7748055e-07
4.6753067e-07
5.7631945e-07
1.3921806e-05
0.0013791979
1.5957101e-07
1.7495586e-07
2.3355762e-07
3.5876814e-07
6.3421856e-07
1.2295777e-06
1.2413848e-06
3.616608e-07
0.00023774522
0.0020063174
5.0611497e-07
5.597329e-07
7.5109892e-07
1.1548085e-06
1.7945424e-06
1.6361402e-06
1.5517666e-09
8.756885e-06
0.00048191472
0.0025173549
1.1951083e-06
1.3401696e-06
1.789009e-06
2.3677366e-06
1.9779706e-06
1.7898933e-06
9.7136968e-07
4.5539508e-05
0.00077080104
0.0029353171
2.3713913e-06
2.6914788e-06
3.1509103e-06
2.4456457e-06
2.6655244e-06
9.0182044e-08
6.6114006e-06
0.00035662756
0.0010729278
0.0032483655
4.2063048e-06
4.4448743e-06
3.8762992e-06
3.38017e-06
9.9901061e-07
1.3059875e-06
1.9704162e-05
0.00052041278
0.0013658058
0.0034773962
6.7209817e-06
6.1155095e-06
4.3010354e-06
3.4111203e-06
1.5964781e-07
4.802442e-06
5.965988e-05
0.00069996734
0.0016391768
0.0036550563
9.6590624e-06
6.3802288e-06
5.3193846e-06
5.9382399e-07
1.3461344e-06
1.7174373e-05
0.00013322448
0.00088797208
0.0018907283
0.0038031035
1.2671185e-05
7.7340449e-06
5.1732882e-06
1.6816074e-07
3.4803224e-06
2.691342e-05
0.00055256243
0.0010780651
0.0021200723
0.0039302646
1.4994592e-05
9.4570248e-06
2.4609341e-06
9.5692524e-07
8.6387758e-06
5.060852e-05
0.00068553614
0.0012661247
0.0023283798
0.004041127
1.5421959e-05
1.0402454e-05
9.2877819e-08
2.6769653e-06
2.2750703e-05
0.00010869575
0.00082457528
0.0014501267
0.0025191509
0.0041419185
1.8197158e-05
9.6003586e-06
3.7474399e-07
5.2202553e-06
3.1430408e-05
0.00017057308
0.00096763076
0.0016288632
0.0026951752
0.0042359755
2.1554082e-05
6.2627717e-06
1.4239586e-06
1.0271304e-05
4.2474688e-05
0.00024876313
0.0011134995
0.0018024275
0.0028596286
0.0043259705
2.473491e-05
1.5635551e-08
3.3208574e-06
2.0580033e-05
6.8062844e-05
0.00081069218
0.0012602576
0.0019700353
0.0030136257
0.0044120817
2.7156059e-05
2.4260874e-07
5.5722986e-06
3.5233143e-05
0.00011723447
0.0009307874
0.0014068832
0.0021311681
0.0031578104
0.0044940023
2.8554688e-05
5.9850991e-07
8.8690681e-06
4.4440061e-05
0.00017623747
0.0010545452
0.0015531359
0.0022867793
0.0032942707
0.0045732453
2.872096e-05
1.2426767e-06
1.4291776e-05
5.5269365e-05
0.00023343693
0.0011813678
0.0016986841
0.0024374818
0.0034244277
0.0046505378
2.7276162e-05
3.0424162e-06
2.1420484e-05
6.7815648e-05
0.00029975879
0.0013107786
0.0018433423
0.0025838323
0.0035493713
0.0047266073
2.4037145e-05
5.4998999e-06
3.5081588e-05
9.0057996e-05
0.00037488286
0.0014424091
0.0019870597
0.0027263599
0.0036700301
0.0048018545
1.8754479e-05
7.9448341e-06
5.6048415e-05
0.00013328134
0.00045896976
0.0015763421
0.0021303562
0.0028661635
0.0037877859
0.0048772893
1.1114618e-05
1.0844747e-05
6.6029764e-05
0.00018398125
0.0013025505
0.0017112683
0.0022723458
0.0030028177
0.0039024205
0.0049522864
1.1127777e-06
1.4327008e-05
7.7045181e-05
0.00024120226
0.0014278383
0.0018469304
0.0024123712
0.0031357685
0.0040133898
0.0050259864
2.4003924e-07
1.8405239e-05
8.9081041e-05
0.0002993035
0.0015560836
0.0019836355
0.0025511855
0.0032660217
0.0041217787
0.0050991958
5.6520109e-07
2.4105643e-05
0.00010211673
0.00035337512
0.001687093
0.0021212637
0.0026890146
0.0033940757
0.0042281661
0.0051723182
9.5636151e-07
3.0751919e-05
0.00011610843
0.00041088317
0.0018206765
0.0022597083
0.0028259693
0.0035202839
0.0043329585
0.0052455124
1.414351e-06
3.8187039e-05
0.00013098821
0.00047116356
0.0019566657
0.002398894
0.0029621693
0.0036449145
0.0044364577
0.0053188689
1.9382018e-06
4.6354932e-05
0.00014666515
0.00053343397
0.00209488
0.0025387582
0.0030976964
0.0037682025
0.0045389638
0.0053925769
2.5242031e-06
5.5170682e-05
0.00016302671
0.00059693145
0.0022351895
0.0026792828
0.0032327051
0.0038904121
0.0046406741
0.0054667607
3.1687873e-06
6.4536761e-05
0.00018764575
0.00066079114
0.0023774648
0.0028204451
0.0033672891
0.0040117183
0.0047417814
0.0055414752
3.8659748e-06
7.4474479e-05
0.0002206458
0.00072415286
0.0025215705
0.0029622047
0.003501518
0.0041322849
0.0048424658
0.0056167445
4.6079852e-06
9.014034e-05
0.00025339627
0.00078613201
0.0026673832
0.0031045344
0.0036354806
0.0042522806
0.0049429157
0.0056926906
5.9340902e-06
0.00010578942
0.00028514607
0.0008458935
0.0028147993
0.003247428
0.0037693198
0.0043719264
0.0050432878
0.0057694256
7.5917297e-06
0.0001210758
0.00031517862
0.00090270749
0.0029637306
0.0033909191
0.0039030972
0.0044912703
0.0051436701
0.0058469665
9.2643577e-06
0.00013558851
0.00034274998
0.00095579723
0.003114056
0.0035349686
0.0040368372
0.0046104113
0.0052441542
0.0059253112
1.0902978e-05
0.00014891641
0.00036714976
0.0010044582
0.0032656573
0.0036795593
0.0041706482
0.0047295294
0.0053449161
0.0060045654
1.2467848e-05
0.00016072209
0.00038781163
0.0010481786
0.0034184428
0.0038246978
0.0043046337
0.0048487482
0.0054460199
0.0060847786
1.3940806e-05
0.00017068786
0.000404173
0.0010865587
0.0035723619
0.0039703726
0.0044387779
0.0049680501
0.0055474826
0.0061659327
1.5301439e-05
0.00017851792
0.00041568837
0.0011190914
0.0037272905
0.0041165595
0.0045731118
0.005087515
0.0056493812
0.006248072
1.6518289e-05
0.00018394493
0.0004220107
0.0011455073
0.0038831259
0.0042632099
0.004707713
0.0052073004
0.0057518878
0.0063312782
1.7552133e-05
0.00018674902
0.00042291829
0.0011659359
0.0040398456
0.0044103768
0.0048426335
0.0053274229
0.0058549629
0.0064155412
1.8363843e-05
0.00018685545
0.00041828494
0.0011801264
0.004197318
0.0045579958
0.0049778364
0.0054478478
0.0059586007
0.0065007924
1.8965562e-05
0.00018424325
0.00040803995
0.0011879769
0.0043554686
0.0047059917
0.0051133321
0.0055686498
0.0060628683
0.006587069
1.9336283e-05
0.00017869045
0.0003985197
0.001189715
0.0045142155
0.004854351
0.0052490521
0.0056897628
0.0061677141
0.0066743172
1.9417467e-05
0.00017009039
0.00040881001
0.0011850453
0.0046733373
0.0050029069
0.0053849319
0.005811117
0.0062730455
0.0067624414
1.9127069e-05
0.00016905694
0.00041797155
0.0011722501
0.0048325292
0.0051506966
0.0055199234
0.0059317464
0.0063779939
0.0068506856
1.8364975e-05
0.0001662108
0.00042518788
0.0011591647
0.0019182401
0.0053003309
0.0056559657
0.0060532592
0.0064838667
0.0069400752
1.7610424e-05
0.00016342675
0.00043315906
0.0011470682
0.0018897102
0.0054508267
0.0057936924
0.0061766135
0.0065917079
0.0070316102
1.6867253e-05
0.00016031869
0.00044075236
0.0010993444
0.0018493539
0.0056011968
0.0059316297
0.006300538
0.0067004878
0.0071244277
1.5923579e-05
0.00015635246
0.00044762618
0.0010374214
0.0018011907
0.0057514905
0.0060696174
0.0064247601
0.0068098864
0.0072182364
1.4736824e-05
0.00015148675
0.00045372706
0.00096759483
0.0017465807
0.0059016042
0.0062075179
0.0065491386
0.006919721
0.0073128411
1.3463489e-05
0.00014556906
0.00045902883
0.00089013365
0.0016840806
0.0060512932
0.0063445529
0.0066727118
0.0070290656
0.007407398
1.3126977e-05
0.00013818595
0.00046300956
0.00079743617
0.0016257955
0.0023559292
0.0064833426
0.0067974744
0.0071394767
0.0075030902
1.2794459e-05
0.00013081393
0.00046723901
0.00071550534
0.0015712651
0.002272519
0.006622365
0.0069235739
0.0072516373
0.0076007521
1.2474044e-05
0.00012347692
0.00047146418
0.0006326491
0.0015099057
0.0021769145
0.006760788
0.0070494752
0.0073640602
0.0076991246
1.2080415e-05
0.00011781287
0.00047528377
0.00060866708
0.0014127704
0.0020728652
0.006898499
0.0071744645
0.007475748
0.0077971252
1.1572285e-05
0.00011294004
0.00047823223
0.00060494556
0.001265982
0.0019770646
0.00263483
0.0073011165
0.0075886427
0.0078962386
1.1017439e-05
0.00010794311
0.00042677788
0.00060184966
0.0011356292
0.0018849503
0.0025078897
0.0074274504
0.0077019266
0.0079961191
1.043093e-05
0.00010283231
0.00036704413
0.0005983325
0.00099854317
0.0017762737
0.0023838089
0.0030007784
0.0078170398
0.0080975171
9.8381619e-06
9.7739987e-05
0.00030800753
0.00059509743
0.00086801185
0.0016801289
0.0022629444
0.0028467603
0.0079317962
0.0081997305
9.2319286e-06
9.2695438e-05
0.00027385447
0.00059203041
0.00073928528
0.001505864
0.0021309431
0.0026818982
0.0080456955
0.00830176
8.5637205e-06
8.7514334e-05
0.0002531251
0.00058868145
0.00071076984
0.0013256381
0.0019917505
0.002526074
0.0030337715
0.008404951
7.8371988e-06
8.2195345e-05
0.00023217247
0.00058515183
0.00069968219
0.0011483643
0.0018592211
0.0023586886
0.0028642506
0.0033257762
7.0762872e-06
7.660877e-05
0.00021149461
0.00058178953
0.00068909266
0.00097815126
0.0016641002
0.0022025243
0.0026787803
0.0031335697
6.2780912e-06
6.7143661e-05
0.00019125004
0.00054514514
0.0006790011
0.00081287548
0.0014522836
0.0020483477
0.0024901821
0.0029223849
5.4273479e-06
5.7754311e-05
0.00017154887
0.00045328844
0.0006693942
0.00077834403
0.0012479626
0.0018697877
0.002312028
0.0027149425
4.5094264e-06
4.8280472e-05
0.00015483524
0.00036226651
0.00065978942
0.00076097411
0.0010451727
0.0016200652
0.0021336741
0.00250412
3.5581338e-06
3.880988e-05
0.00014238625
0.0003120711
0.00065029803
0.00074393024
0.00084692002
0.0013775313
0.0019107547
0.0023053928
2.6156697e-06
2.9654444e-05
0.00013048467
0.00027936067
0.00064173084
0.00072830555
0.00082383667
0.001153303
0.0016487497
0.0021272239
1.6941906e-06
2.1402568e-05
0.00011924956
0.00024867739
0.00055525897
0.00071421138
0.00080289421
0.00094555453
0.0014080978
0.0018619754
7.9804759e-07
1.8919546e-05
0.00010880279
0.00022028313
0.00044474438
0.00070172841
0.00078402096
0.00087153181
0.0011847583
0.001610221
1.1598652e-06
1.6612574e-05
9.9182896e-05
0.00019401541
0.00035727867
0.00069067298
0.00076697843
0.0008485757
0.00097592803
0.0013749749
1.285991e-05
1.4471235e-05
8.910006e-05
0.00017292948
0.00032004961
0.00065833098
0.00075163712
0.00082755799
0.00090612276
0.0011533731
2.3577786e-05
1.2456379e-05
7.4934265e-05
0.0001580556
0.00028547039
0.00053703589
0.00073778784
0.00080827495
0.00088165468
0.00095568333
3.3446272e-05
1.0560954e-05
6.1679491e-05
0.00014423597
0.00025330577
0.00042371612
0.00072529318
0.00079067325
0.00085900411
0.00092834093
4.2512047e-05
8.7798832e-06
4.9274359e-05
0.00013137331
0.00022323369
0.00036141996
0.00067748859
0.00077460795
0.00083812876
0.0009028902
5.0853019e-05
7.1029535e-06
3.7632949e-05
0.00011936557
0.00019507236
0.00032228384
0.00054957217
0.00075998838
0.00081894373
0.0008793068
5.8504276e-05
5.5266473e-06
2.6716932e-05
0.00010815088
0.00017689502
0.00028573943
0.0004297918
0.00074670655
0.0008013626
0.00085757036
6.5620787e-05
4.0214738e-06
2.2166539e-05
9.5518015e-05
0.00016073545
0.00025159012
0.00037218878
0.00062096241
0.00078535308
0.00083759309
7.2366434e-05
2.5781785e-06
1.9150051e-05
7.9068027e-05
0.00014570754
0.00021977466
0.00033067219
0.00049206469
0.00077082116
0.00081932592
7.8660755e-05
1.2102982e-06
1.6331285e-05
6.3731978e-05
0.00013175267
0.00019439522
0.00029200977
0.00040255436
0.00064261864
0.00080273677
8.4438019e-05
1.1397962e-06
1.3713189e-05
4.9471799e-05
0.00011881843
0.00017617669
0.00025609538
0.00035787016
0.00050959112
0.00076714637
8.9619023e-05
1.5277184e-05
1.1290234e-05
3.6228403e-05
0.00010682934
0.00015932631
0.0002228049
0.00031639291
0.00041560894
0.00062401547
9.4255663e-05
2.7953218e-05
9.0424407e-06
2.5821944e-05
8.8337046e-05
0.0001437623
0.00019825027
0.00027798067
0.00036949243
0.00049115266
9.8510227e-05
3.9426179e-05
6.9319187e-06
2.2189492e-05
7.1192703e-05
0.00012945625
0.0001793613
0.00024252191
0.0003268279
0.00041478987
0.00010239365
4.9804196e-05
4.9670705e-06
1.8844943e-05
5.5422418e-05
0.00011632134
0.0001620061
0.0002123077
0.00028744065
0.00036878997
0.0001058112
5.9006173e-05
3.1656569e-06
1.5790449e-05
4.0919055e-05
9.9486449e-05
0.00014607322
0.00019224072
0.00025119574
0.00032633622
0.00010872924
6.7064244e-05
1.5220989e-06
1.300604e-05
2.7936798e-05
8.1087177e-05
0.00013147732
0.00017385716
0.00021956332
0.00028726009
0.00011120022
7.4098785e-05
2.4105954e-08
1.0443847e-05
2.4028391e-05
6.4179497e-05
0.00011819274
0.00015706414
0.00019910963
0.00025136313
0.00011323753
8.0188305e-05
1.4161702e-05
8.1002377e-06
2.0469306e-05
4.873329e-05
9.9997967e-05
0.00014173616
0.00018044868
0.0002216388
0.00011477206
8.5312956e-05
2.649242e-05
5.9815784e-06
1.7252613e-05
3.4644816e-05
8.1652845e-05
0.00012778743
0.00016344035
0.00020148751
0.00011580846
8.9531318e-05
3.7088352e-05
4.0829259e-06
1.4341539e-05
2.68474e-05
6.4907791e-05
0.00011288654
0.00014798289
0.00018314084
0.00011636857
9.29171e-05
4.6130806e-05
2.380044e-06
1.1708259e-05
2.3139506e-05
4.9679058e-05
9.3885931e-05
0.00013397013
0.00016649676
0.00011642572
9.5482675e-05
5.3711423e-05
8.6431275e-07
9.3551061e-06
1.9819801e-05
3.5927042e-05
7.6685214e-05
0.00012116317
0.00015142917
0.0001159307
9.7203488e-05
5.9844065e-05
4.5539417e-06
7.2844178e-06
1.6858172e-05
2.8056891e-05
6.1089541e-05
0.00010223721
0.00013782213
0.00011485893
9.8089179e-05
6.4612159e-05
1.5046665e-05
5.4660446e-06
1.4216996e-05
2.4515155e-05
4.7045475e-05
8.5225128e-05
0.00012560807
0.00011317622
9.8134384e-05
6.8087115e-05
2.3597582e-05
3.8873734e-06
1.190197e-05
2.13957e-05
3.4531955e-05
6.9950058e-05
0.0001082511
0.00011084708
9.7328549e-05
7.0306853e-05
3.028822e-05
2.5481364e-06
9.9094672e-06
1.8657072e-05
2.863542e-05
5.6270257e-05
9.2019052e-05
0.00010783701
9.5662453e-05
7.1312487e-05
3.5238621e-05
1.4352841e-06
8.212928e-06
1.6279765e-05
2.553746e-05
4.4185425e-05
7.7606962e-05
0.00010408687
9.3096863e-05
7.1103202e-05
3.8505215e-05
5.4751572e-07
6.8064636e-06
1.4267086e-05
2.2881694e-05
3.3615591e-05
6.4900442e-05
9.9516523e-05
8.9567616e-05
6.9645569e-05
4.0097649e-05
1.1259417e-06
5.6929127e-06
1.2618746e-05
2.0636206e-05
2.9638298e-05
5.3811979e-05
9.4081668e-05
8.5046843e-05
6.6944271e-05
4.006773e-05
4.5908854e-06
4.8595156e-06
1.1307493e-05
1.8784428e-05
2.722792e-05
4.4299742e-05
8.7724725e-05
7.9496101e-05
6.3000297e-05
3.848828e-05
6.1036386e-06
4.3006964e-06
1.032984e-05
1.7332771e-05
2.5285205e-05
3.6345367e-05
8.0349471e-05
7.282763e-05
5.7740082e-05
3.5300635e-05
5.625632e-06
4.0335451e-06
9.6972353e-06
1.6285433e-05
2.3791233e-05
3.2123848e-05
7.1897069e-05
6.4996309e-05
5.1147141e-05
3.0532707e-05
3.2415736e-06
4.058526e-06
9.4033111e-06
1.5628072e-05
2.2731031e-05
3.0650613e-05
6.2311691e-05
5.5957866e-05
4.319976e-05
2.4193808e-05
1.6223672e-07
4.3840603e-06
9.4513278e-06
1.5359066e-05
2.2110035e-05
2.9668296e-05
5.1544767e-05
4.5673159e-05
3.3877476e-05
1.6285521e-05
1.001655e-06
5.0213158e-06
9.8478702e-06
1.5481562e-05
2.1928003e-05
2.9168537e-05
3.9576179e-05
3.4131005e-05
2.3186802e-05
6.8420409e-06
2.1340609e-06
5.9797314e-06
1.0599304e-05
1.5997044e-05
2.2180832e-05
2.9142254e-05
2.6428332e-05
2.1362891e-05
1.117362e-05
6.1979629e-07
3.5724136e-06
7.2684158e-06
1.1710241e-05
1.6905062e-05
2.2862391e-05
2.957833e-05
1.2162901e-05
7.4351134e-06
3.4133958e-07
2.4760083e-06
5.3256129e-06
8.8918193e-06
1.3180676e-05
1.8200437e-05
2.3961805e-05
3.046068e-05
5.072293e-07
1.189467e-06
2.5670777e-06
4.6344085e-06
7.392684e-06
1.0846535e-05
1.5002643e-05
1.987e-05
2.5460063e-05
3.1764485e-05
3.0780592e-06
3.7407507e-06
5.0781281e-06
7.0846276e-06
9.7630468e-06
1.3118298e-05
1.7157433e-05
2.1889811e-05
2.732706e-05
3.345336e-05
5.9082787e-06
6.5526435e-06
7.8534868e-06
9.8059037e-06
1.2412804e-05
1.567923e-05
1.9612306e-05
2.4221339e-05
2.951772e-05
3.547463e-05
8.961879e-06
9.5894645e-06
1.0856668e-05
1.2758805e-05
1.5298801e-05
1.8481623e-05
2.2314203e-05
2.6805522e-05
3.1963207e-05
3.8853478e-05
1.2180063e-05
1.2791226e-05
1.4025327e-05
1.5877785e-05
1.8351358e-05
2.1450692e-05
2.5182211e-05
2.9554115e-05
3.4562538e-05
4.5108658e-05
1.5474676e-05
1.6068774e-05
1.7268277e-05
1.9068618e-05
2.1472188e-05
2.4483031e-05
2.8106714e-05
3.2350201e-05
3.7196264e-05
5.1391944e-05
1.872564e-05
1.9301113e-05
2.0462647e-05
2.2205657e-05
2.4532034e-05
2.744505e-05
3.094918e-05
3.5046007e-05
4.1715125e-05
5.7224646e-05
2.1779749e-05
2.2334101e-05
2.3452381e-05
2.5129947e-05
2.736804e-05
3.0168936e-05
3.3535763e-05
3.7462471e-05
4.7217714e-05
6.2066941e-05
2.4456985e-05
2.4987009e-05
2.6055337e-05
2.7657304e-05
2.9793425e-05
3.2464884e-05
3.5673351e-05
3.9407015e-05
5.1201429e-05
6.531948e-05
2.6560098e-05
2.7062197e-05
2.8073139e-05
2.9588313e-05
3.1607505e-05
3.4130797e-05
3.7157764e-05
4.1172561e-05
5.3053259e-05
6.6356605e-05
2.7891704e-05
2.8362272e-05
2.9308418e-05
3.0725672e-05
3.2613164e-05
3.4969969e-05
3.7794915e-05
4.1124162e-05
5.2203665e-05
6.4607603e-05
2.8279194e-05
2.8715129e-05
2.9590218e-05
3.0900281e-05
3.2643951e-05
3.4819532e-05
3.7424969e-05
4.0451856e-05
4.8205205e-05
5.9645547e-05
2.7602724e-05
2.8001937e-05
2.880186e-05
2.9998749e-05
3.1590988e-05
3.3576504e-05
3.5952511e-05
3.8715747e-05
4.1859391e-05
5.1252857e-05
2.5819587e-05
2.6181407e-05
2.690506e-05
2.7987368e-05
2.9426667e-05
3.1220687e-05
3.3366577e-05
3.5860923e-05
3.8699751e-05
4.1878016e-05
2.2979733e-05
2.3304929e-05
2.3954099e-05
2.492474e-05
2.621535e-05
2.7823831e-05
2.9747539e-05
3.1983319e-05
3.4527526e-05
3.7376052e-05
1.9225101e-05
1.9515874e-05
2.0095361e-05
2.0961675e-05
2.2113665e-05
2.3549678e-05
2.526756e-05
2.7264739e-05
2.9538312e-05
3.2085043e-05
1.4768917e-05
1.5028556e-05
1.5545321e-05
1.6317915e-05
1.7345593e-05
1.862716e-05
2.0161085e-05
2.1945612e-05
2.3978787e-05
2.6258309e-05
9.8602608e-06
1.0092728e-05
1.0555033e-05
1.124636e-05
1.2166385e-05
1.3314458e-05
1.4689721e-05
1.6291162e-05
1.8117662e-05
2.0168033e-05
4.7429967e-06
4.9524317e-06
5.3688345e-06
5.9917839e-06
6.8212615e-06
7.8570803e-06
9.0989624e-06
1.0546596e-05
1.2199682e-05
1.4057953e-05
8.3380838e-07
4.5988063e-07
1.9467383e-07
7.6064312e-07
1.5144741e-06
2.4561868e-06
3.5860956e-06
4.9040351e-06
6.4102393e-06
8.1054901e-06
9.6843878e-06
9.3651513e-06
8.7301721e-06
7.7828826e-06
6.5267939e-06
4.9667545e-06
3.1088653e-06
9.6002708e-07
8.9326065e-07
2.452912e-06
1.6584062e-05
1.6309318e-05
1.576129e-05
1.4943043e-05
1.3857175e-05
1.2507245e-05
1.0897699e-05
9.0338115e-06
6.922024e-06
4.569463e-06
2.172045e-05
2.148183e-05
2.1004408e-05
2.0291245e-05
1.93443e-05
1.8166405e-05
1.6761107e-05
1.5132708e-05
1.3286825e-05
1.1227524e-05
2.5331138e-05
2.5122562e-05
2.4703765e-05
2.4077521e-05
2.3246287e-05
2.2211938e-05
2.0977151e-05
1.95457e-05
1.7921475e-05
1.6108019e-05
2.7667733e-05
2.7484673e-05
2.7115888e-05
2.6564031e-05
2.5830564e-05
2.491734e-05
2.3826659e-05
2.2561274e-05
2.1124414e-05
1.9519213e-05
2.8970444e-05
2.8808965e-05
2.8482563e-05
2.7993811e-05
2.7343977e-05
2.6534617e-05
2.5567645e-05
2.4445356e-05
2.3170446e-05
2.1745494e-05
2.9455252e-05
2.9312315e-05
2.9022443e-05
2.8588139e-05
2.8010535e-05
2.7290976e-05
2.6431379e-05
2.5433508e-05
2.4299589e-05
2.3031787e-05
2.9305938e-05
2.9179289e-05
2.8921618e-05
2.8535335e-05
2.802145e-05
2.7381126e-05
2.6615775e-05
2.5727091e-05
2.4717059e-05
2.3587542e-05
2.8677397e-05
2.8565112e-05
2.8335944e-05
2.7992198e-05
2.7534784e-05
2.6964714e-05
2.6283206e-05
2.5491717e-05
2.4591966e-05
2.3585552e-05
2.7696127e-05
2.7596661e-05
2.7392949e-05
2.7087218e-05
2.6680288e-05
2.6173039e-05
2.5566523e-05
2.4861994e-05
2.4060934e-05
2.3164712e-05
2.6476121e-05
2.6387361e-05
2.6204986e-05
2.5931147e-05
2.5566635e-05
2.5112287e-05
2.4571575e-05
2.3945434e-05
2.323334e-05
2.2436456e-05
2.509153e-05
2.5013044e-05
2.4851266e-05
2.4608217e-05
2.4284605e-05
2.3881153e-05
2.3398716e-05
2.2838309e-05
2.2199673e-05
2.1487515e-05
2.3601491e-05
2.3532335e-05
2.3389335e-05
2.3174372e-05
2.2888067e-05
2.2531036e-05
2.2103997e-05
2.1607799e-05
2.1043446e-05
2.0411075e-05
2.2050186e-05
2.1989568e-05
2.1863818e-05
2.1674665e-05
2.1422641e-05
2.1108253e-05
2.0732081e-05
2.0294813e-05
1.9797261e-05
1.9240175e-05
2.0498955e-05
2.0444974e-05
2.0332506e-05
2.0163229e-05
1.9937656e-05
1.9656265e-05
1.9319604e-05
1.8933031e-05
1.8497213e-05
1.8008901e-05
1.9009765e-05
1.8957844e-05
1.8849784e-05
1.8687272e-05
1.8480807e-05
1.8234769e-05
1.7940241e-05
1.7597714e-05
1.7207772e-05
1.6770964e-05
1.753935e-05
1.7493828e-05
1.7398833e-05
1.7255891e-05
1.7065536e-05
1.6828298e-05
1.6567084e-05
1.6270034e-05
1.5931526e-05
1.5551921e-05
1.614822e-05
1.6107189e-05
1.6021215e-05
1.5891778e-05
1.5719397e-05
1.5504583e-05
1.5247928e-05
1.4968782e-05
1.4666806e-05
1.4334434e-05
1.4806904e-05
1.4771274e-05
1.4696406e-05
1.4583613e-05
1.4433318e-05
1.4245922e-05
1.4021885e-05
1.376175e-05
1.3488156e-05
1.3197433e-05
1.3530932e-05
1.3498866e-05
1.3431172e-05
1.3329121e-05
1.3193124e-05
1.3023565e-05
1.2820886e-05
1.2590961e-05
1.233593e-05
1.2082231e-05
1.2344592e-05
1.2317133e-05
1.2258972e-05
1.2171199e-05
1.2054129e-05
1.190804e-05
1.1733241e-05
1.1530098e-05
1.1299047e-05
1.1044498e-05
1.0694215e-05
1.0814599e-05
1.105344e-05
1.105521e-05
1.0949341e-05
1.0817219e-05
1.0661189e-05
1.0489104e-05
1.0293013e-05
1.0073171e-05
9.0117772e-06
9.1242528e-06
9.3476644e-06
9.6793232e-06
9.9608011e-06
9.8489208e-06
9.7148708e-06
9.5588502e-06
9.3811017e-06
9.181884e-06
7.542677e-06
7.645537e-06
7.8499081e-06
8.1533866e-06
8.5530904e-06
8.9031247e-06
8.7818307e-06
8.6446696e-06
8.4973161e-06
8.3316568e-06
6.3017694e-06
6.3988628e-06
6.5878172e-06
6.8685406e-06
7.238492e-06
7.6941067e-06
7.9698367e-06
7.8527053e-06
7.7189309e-06
7.5685759e-06
5.2029514e-06
5.2999487e-06
5.4937898e-06
5.7564243e-06
6.0902372e-06
6.5017658e-06
6.986931e-06
7.0748429e-06
6.9536247e-06
6.8214417e-06
4.2582417e-06
4.3460286e-06
4.5217975e-06
4.7849397e-06
5.1023919e-06
5.4779078e-06
5.9214611e-06
6.3746723e-06
6.2741454e-06
6.1608307e-06
3.4812464e-06
3.5598752e-06
3.7175397e-06
3.953932e-06
4.2693993e-06
4.6122408e-06
5.0135042e-06
5.4729308e-06
5.6520046e-06
5.5560292e-06
2.8379097e-06
2.9073115e-06
3.0465357e-06
3.2555092e-06
3.5358747e-06
3.8729662e-06
4.2344243e-06
4.6493811e-06
5.0806225e-06
5.0004428e-06
2.3079111e-06
2.3694162e-06
2.4929866e-06
2.6787519e-06
2.9275424e-06
3.2405217e-06
3.5708686e-06
3.9396905e-06
4.3579414e-06
4.4900146e-06
1.8682821e-06
1.9225061e-06
2.0316233e-06
2.1959388e-06
2.41648e-06
2.694647e-06
3.0121276e-06
3.3419121e-06
3.7122338e-06
4.0221837e-06
1.5042519e-06
1.5517963e-06
1.6476385e-06
1.792238e-06
1.9867902e-06
2.2328967e-06
2.5325541e-06
2.8293119e-06
3.1613759e-06
3.52767e-06
1.2099828e-06
1.2511256e-06
1.3340963e-06
1.4594109e-06
1.6282724e-06
1.8423414e-06
2.1070947e-06
2.3882806e-06
2.6849544e-06
3.013383e-06
9.7089551e-07
1.0067306e-06
1.0791339e-06
1.1887153e-06
1.3367669e-06
1.5249963e-06
1.7554969e-06
2.0158028e-06
2.2755611e-06
2.5661576e-06
7.735478e-07
8.0457687e-07
8.6739923e-07
9.62706e-07
1.0918627e-06
1.2566581e-06
1.4592681e-06
1.701983e-06
1.9336571e-06
2.1912234e-06
6.1615768e-07
6.4269428e-07
6.9644636e-07
7.7808845e-07
8.889054e-07
1.0305792e-06
1.206685e-06
1.4201189e-06
1.6367195e-06
1.86646e-06
4.8949688e-07
5.1236581e-07
5.5879496e-07
6.2950318e-07
7.2580486e-07
8.4940834e-07
1.0023698e-06
1.1870202e-06
1.3846967e-06
1.5847128e-06
3.8487095e-07
4.0442324e-07
4.4421981e-07
5.0501608e-07
5.8814665e-07
6.9533819e-07
8.2865636e-07
9.9043298e-07
1.1732203e-06
1.3519172e-06
3.050312e-07
3.2164474e-07
3.5548078e-07
4.0723946e-07
4.7813562e-07
5.6973751e-07
6.8391691e-07
8.2278744e-07
9.8783135e-07
1.1468966e-06
2.3884622e-07
2.5298937e-07
2.8187674e-07
3.2622368e-07
3.8724245e-07
4.6649311e-07
5.6582927e-07
6.8733253e-07
8.3320263e-07
9.7654812e-07
1.8728533e-07
1.9920148e-07
2.2355987e-07
2.6101379e-07
3.1265445e-07
3.7988227e-07
4.6435669e-07
5.6929058e-07
6.9682939e-07
8.2944755e-07
1.4605829e-07
1.5616857e-07
1.7690301e-07
2.0891674e-07
2.5328585e-07
3.1138894e-07
3.8485459e-07
4.754965e-07
5.8522327e-07
7.0455331e-07
1.1340429e-07
1.2186112e-07
1.3922289e-07
1.6608117e-07
2.0339602e-07
2.5239374e-07
3.1527194e-07
3.9390391e-07
4.8977178e-07
5.9910554e-07
8.8064678e-08
9.5220011e-08
1.0996473e-07
1.3288422e-07
1.6491708e-07
2.0726121e-07
2.6132419e-07
3.286627e-07
4.1090822e-07
5.0780883e-07
6.7848432e-08
7.3802721e-08
8.608912e-08
1.0523177e-07
1.3206252e-07
1.676395e-07
2.1407417e-07
2.7246786e-07
3.4435408e-07
4.3135966e-07
5.2493775e-08
5.7521754e-08
6.7941532e-08
8.4267165e-08
1.073076e-07
1.3809234e-07
1.7782636e-07
2.2783565e-07
2.8950252e-07
3.6422433e-07
4.0345743e-08
4.4523925e-08
5.3197147e-08
6.6822976e-08
8.6115206e-08
1.1197855e-07
1.4575967e-07
1.889001e-07
2.4248831e-07
3.0786207e-07
3.0962949e-08
3.4458459e-08
4.1746321e-08
5.3263154e-08
6.9685827e-08
9.1873256e-08
1.2084333e-07
1.5816577e-07
2.0479012e-07
2.6195643e-07
2.4058362e-08
2.6995902e-08
3.3143652e-08
4.2908684e-08
5.6918696e-08
7.5970194e-08
1.0099257e-07
1.3337141e-07
1.7454818e-07
2.254319e-07
1.9176204e-08
2.1687405e-08
2.696921e-08
3.5412545e-08
4.7618905e-08
6.4354193e-08
8.6516235e-08
1.1509502e-07
1.5112548e-07
1.956575e-07
1.5769846e-08
1.7921342e-08
2.245413e-08
2.9716776e-08
4.0243125e-08
5.4710391e-08
7.3908227e-08
9.8701174e-08
1.3013316e-07
1.7096485e-07
1.3277772e-08
1.5162712e-08
1.9164218e-08
2.5634293e-08
3.5114399e-08
4.8299328e-08
6.6012354e-08
8.9175201e-08
1.1877244e-07
1.5582733e-07
1.2631934e-08
1.4354706e-08
1.8011093e-08
2.3919544e-08
3.256958e-08
4.4587941e-08
6.0714856e-08
8.1775305e-08
1.086451e-07
1.4222835e-07
1.2246271e-08
1.3824094e-08
1.7171191e-08
2.2574456e-08
3.0551142e-08
4.2263634e-08
5.8239042e-08
7.9459961e-08
1.0701943e-07
1.4211129e-07
1.4026021e-08
1.5689011e-08
1.9236247e-08
2.4990468e-08
3.3456405e-08
4.5292595e-08
6.1296878e-08
8.2389372e-08
1.0959244e-07
1.440215e-07
1.6304066e-08
1.8039546e-08
2.1722265e-08
2.7653019e-08
3.6304968e-08
4.8295321e-08
6.4371382e-08
8.5394885e-08
1.1589419e-07
1.5614434e-07
1.9783343e-08
2.180724e-08
2.6138096e-08
3.3167047e-08
4.352223e-08
5.8044511e-08
7.7786374e-08
1.0401194e-07
1.3819656e-07
1.82042e-07
2.636166e-08
2.8804472e-08
3.3978215e-08
4.2264456e-08
5.4282889e-08
7.0863133e-08
9.3043344e-08
1.2206989e-07
1.5939702e-07
2.0670378e-07
3.2479866e-08
3.5255311e-08
4.1244973e-08
5.0747756e-08
6.4374913e-08
8.3510519e-08
1.1220153e-07
1.5077333e-07
2.0173857e-07
2.681005e-07
4.4113023e-08
4.7831823e-08
5.6140177e-08
6.9427523e-08
8.8676962e-08
1.1523113e-07
1.5081073e-07
1.975405e-07
2.5798025e-07
3.3518406e-07
5.787275e-08
6.2669305e-08
7.2994734e-08
8.9483632e-08
1.1303688e-07
1.4502821e-07
1.8721381e-07
2.417577e-07
3.1126127e-07
4.0596756e-07
7.04216e-08
7.6268915e-08
8.8572229e-08
1.0917235e-07
1.4066492e-07
1.8451408e-07
2.4386983e-07
3.2267483e-07
4.257489e-07
5.5892274e-07
9.7706894e-08
1.0627606e-07
1.2431448e-07
1.5318049e-07
1.9452029e-07
2.5086322e-07
3.2547495e-07
4.2242825e-07
5.4668252e-07
7.0422133e-07
1.2471496e-07
1.356062e-07
1.5834433e-07
1.9420661e-07
2.4502005e-07
3.1336908e-07
4.026269e-07
5.1698388e-07
6.6152792e-07
9.2104889e-07
1.4945625e-07
1.6306765e-07
1.9537537e-07
2.4816394e-07
3.2652596e-07
4.3747075e-07
5.9016139e-07
7.9607637e-07
1.0692738e-06
1.42677e-06
2.4215803e-07
2.651909e-07
3.1390434e-07
3.9141579e-07
5.0294812e-07
6.5589199e-07
8.5976503e-07
1.1264336e-06
1.4703729e-06
1.9090597e-06
3.2880973e-07
3.5962765e-07
4.241666e-07
5.2561371e-07
6.6914111e-07
8.6256344e-07
1.1157234e-06
1.4408385e-06
1.8527609e-06
2.3693821e-06
4.0865334e-07
4.4698478e-07
5.2679585e-07
6.514162e-07
8.2581689e-07
1.0582713e-06
1.358916e-06
1.740286e-06
2.2175725e-06
2.8090377e-06
4.8221179e-07
5.2780216e-07
6.2236009e-07
7.6933791e-07
9.7365087e-07
1.2437905e-06
1.5902323e-06
2.0258084e-06
2.5660152e-06
3.2294493e-06
5.4998084e-07
6.0258142e-07
7.1137487e-07
8.798909e-07
1.1132164e-06
1.4197303e-06
1.8103288e-06
2.2981197e-06
2.8988715e-06
3.6503833e-06
6.1237572e-07
6.7176083e-07
7.9432637e-07
9.836775e-07
1.2505064e-06
1.6888548e-06
2.288942e-06
3.0934851e-06
4.1540987e-06
5.5324567e-06
8.6309172e-07
9.5465864e-07
1.1480084e-06
1.4554637e-06
1.8962389e-06
2.4964358e-06
3.2924306e-06
4.3278251e-06
5.655119e-06
7.3369632e-06
1.1647986e-06
1.2867977e-06
1.5418764e-06
1.9425447e-06
2.508688e-06
3.2655189e-06
4.2509725e-06
5.5094387e-06
7.094192e-06
9.0687404e-06
1.4448281e-06
1.5962948e-06
1.9111346e-06
2.4020109e-06
3.089738e-06
3.9981469e-06
5.16682e-06
6.6408461e-06
8.4741791e-06
1.0731072e-05
1.7048443e-06
1.8848773e-06
2.2576347e-06
2.8359031e-06
3.6416439e-06
4.6968991e-06
6.0429788e-06
7.7255876e-06
9.7992773e-06
1.232896e-05
1.946285e-06
2.1540134e-06
2.5829144e-06
3.245856e-06
4.1657664e-06
5.363702e-06
6.8816234e-06
8.7661137e-06
1.1072268e-05
1.3865564e-05
2.1705258e-06
2.4051284e-06
2.8884947e-06
3.6335272e-06
4.6636266e-06
6.0006476e-06
7.685147e-06
9.7651702e-06
1.2296263e-05
1.6107148e-05
2.3787475e-06
2.6394281e-06
3.1756374e-06
4.0002817e-06
5.3167497e-06
7.1464575e-06
9.5933141e-06
1.2803734e-05
1.6948995e-05
2.2230603e-05
3.1995929e-06
3.5754457e-06
4.3633739e-06
5.6054818e-06
7.3730466e-06
9.7514133e-06
1.285539e-05
1.683461e-05
2.1861132e-05
2.8137291e-05
4.1044569e-06
4.584513e-06
5.5834327e-06
7.143034e-06
9.335691e-06
1.2247925e-05
1.5990241e-05
2.0715947e-05
2.6597715e-05
3.3838502e-05
4.9507654e-06
5.5321672e-06
6.7362645e-06
8.6045217e-06
1.1210299e-05
1.4642181e-05
1.9004871e-05
2.4455737e-05
3.1167897e-05
3.9344753e-05
5.7424896e-06
6.4224969e-06
7.8262022e-06
9.9946583e-06
1.3002103e-05
1.6939956e-05
2.1905827e-05
2.8061462e-05
3.5580265e-05
4.4665913e-05
6.4832946e-06
7.2592833e-06
8.8572615e-06
1.1317818e-05
1.4715957e-05
1.9146618e-05
2.4699196e-05
3.1540078e-05
3.9842796e-05
4.9811146e-05
7.1765715e-06
8.046023e-06
9.8331557e-06
1.2578046e-05
1.6356352e-05
2.1267129e-05
2.7390596e-05
3.489799e-05
4.3962739e-05
5.4788491e-05
7.8253144e-06
8.7858021e-06
1.075715e-05
1.3778867e-05
1.7927133e-05