/*--------------------------------*- C++ -*----------------------------------*\
  =========                 |
  \\      /  F ield         | OpenFOAM: The Open Source CFD Toolbox
   \\    /   O peration     | Website:  https://openfoam.org
    \\  /    A nd           | Version:  7
     \\/     M anipulation  |
\*---------------------------------------------------------------------------*/
FoamFile
{
    version     2.0;
    format      ascii;
    class       volScalarField;
    location    "80000";
    object      Cz;
}
// * * * * * * * * * * * * * * * * * * * * * * * * * * * * * * * * * * * * * //

dimensions      [0 1 0 0 0 0 0];

internalField   nonuniform List<scalar> 
87000
(
1.3800211e-22
1.8400281e-22
0
0
4.2345192e-23
-8.0292136e-22
-4.3808848e-23
4.4245562e-23
3.2063816e-21
0
-1.3749598e-22
0
7.7714401e-24
-1.2583093e-22
1.176002e-21
1.7804911e-21
-2.9073821e-21
-1.264602e-21
-1.9424571e-22
3.5783206e-21
0
7.7041788e-22
9.2728829e-22
5.4443313e-22
2.1465793e-21
7.0677371e-22
-1.8036523e-23
-1.3516018e-21
-1.9424571e-22
3.5647318e-21
0
-5.2605941e-22
9.2407278e-22
-1.2583093e-22
1.1688433e-21
0
2.7606187e-21
1.1647085e-21
-1.9424571e-22
-3.1063174e-22
0
-1.8131827e-22
7.7714401e-24
-8.7954235e-22
2.0429118e-21
-8.8147593e-22
4.180593e-21
-2.5034797e-21
-1.9424571e-22
-3.1063174e-22
1.3548996e-22
0
-4.2579642e-22
-1.2583093e-22
2.1252211e-21
0
-1.8036523e-23
3.6511488e-21
-3.4379971e-21
-3.1063174e-22
0
3.5998144e-22
4.8251911e-22
-3.2994187e-21
1.0885027e-22
7.8541406e-22
-1.8036523e-23
0
2.8550089e-21
-3.1063174e-22
1.4155656e-22
-1.793306e-22
4.8093481e-22
5.3303309e-22
2.1111126e-21
2.2573316e-21
-1.8036523e-23
4.7734692e-21
-1.9424571e-22
-3.1063174e-22
0
-3.7724351e-22
7.7714401e-24
-1.2583093e-22
1.0617724e-21
1.649596e-21
-1.3374671e-21
-2.4696189e-21
-2.3954707e-21
3.484239e-21
-2.7408501e-22
7.3196813e-22
7.7714401e-24
1.0948612e-21
3.0465345e-21
0
2.5202803e-21
2.4612312e-21
-1.3827939e-21
1.6720805e-21
4.0612922e-22
0
1.7960126e-21
-1.2583093e-22
3.0360883e-21
9.0268943e-23
1.2917337e-21
0
-1.9424571e-22
3.4578e-21
0
1.9897722e-23
7.7714401e-24
-7.3170826e-22
1.1407287e-21
-6.8084766e-22
1.28693e-21
0
4.9786046e-21
-5.8516604e-21
-1.3910819e-22
-3.5213223e-22
7.7714401e-24
-1.2583093e-22
1.0885027e-22
8.5855744e-22
-2.7092638e-21
2.2536463e-21
9.8328231e-22
-3.1063174e-22
1.3156529e-22
-2.1521583e-22
1.3135681e-21
-7.2727224e-22
1.0444256e-21
0
-1.8036523e-23
1.826059e-22
-1.9424571e-22
-2.2670984e-21
1.3814137e-22
0
-8.7392819e-22
-7.6908269e-22
1.0885027e-22
6.2818448e-21
-2.7810911e-21
-1.3011788e-21
-4.5086948e-21
-3.1063174e-22
0
5.8210122e-22
8.8639426e-22
1.1122609e-21
1.0885027e-22
0
4.0214785e-21
0
-1.9424571e-22
3.3925464e-21
0
5.4038982e-22
7.7714401e-24
-1.6984719e-22
-8.1646901e-22
1.5141588e-21
2.7261186e-21
0
2.9282761e-21
-3.1063174e-22
-1.2964579e-22
0
8.8027444e-22
-2.6285456e-21
1.0885027e-22
1.5086056e-21
-2.5710613e-21
3.5015382e-21
-1.1704023e-21
-3.1063174e-22
-1.3622892e-22
5.763744e-22
1.2478064e-21
-1.2583093e-22
1.0885027e-22
-9.0268943e-23
1.2537942e-21
0
7.7833074e-22
-3.1063174e-22
1.2869657e-22
5.3468401e-22
1.6978575e-21
-7.1415812e-22
1.0240259e-21
0
-1.2852028e-21
1.0982107e-21
-1.0973386e-23
-2.0446487e-21
0
-8.5483047e-22
4.6086e-22
-1.3862024e-21
1.0885027e-22
-4.74701e-21
3.9512525e-21
-2.3709719e-21
-1.9424571e-22
-3.1063174e-22
0
-1.5044135e-22
1.7285664e-21
-1.2583093e-22
-8.8902734e-22
0
-1.8036523e-23
0
-1.9424571e-22
1.4106894e-21
1.3434436e-22
1.0580815e-21
8.6517021e-22
-1.2583093e-22
1.103396e-21
1.3908744e-21
-1.8036523e-23
-9.1302948e-23
-1.9424571e-22
-3.9244454e-21
-7.0586079e-24
0
2.5282348e-21
2.86092e-21
3.8055469e-21
-1.4757112e-21
2.7519196e-21
-9.9088526e-22
-1.9207173e-21
4.8155229e-21
-7.0586079e-24
-1.8836948e-22
4.5487358e-22
-3.1459669e-21
-7.8966575e-22
3.7660163e-21
-1.2621356e-21
0
-1.9424571e-22
1.3918197e-21
-7.0586079e-24
3.9795444e-23
1.7047085e-21
1.1131996e-21
1.0885027e-22
-8.2272223e-22
-1.8036523e-23
0
-1.9424571e-22
-3.1063174e-22
0
3.5437425e-22
7.7714401e-24
-1.2583093e-22
1.0885027e-22
3.0996058e-21
-1.8036523e-23
1.1616278e-21
2.8222396e-21
1.3793549e-21
0
-3.3324982e-22
7.7714401e-24
-1.2583093e-22
9.9751646e-22
0
-1.8036523e-23
0
-1.9424571e-22
-3.1063174e-22
0
5.3783686e-22
2.1282469e-21
4.4335926e-22
2.9438763e-21
-8.1469282e-22
-1.8036523e-23
0
-2.0692252e-21
-3.1063174e-22
-1.3111231e-22
1.0322251e-21
4.4751323e-22
-8.181467e-23
1.0804125e-21
7.2176702e-22
1.2034153e-21
4.4169724e-21
1.6738572e-21
-6.9964736e-21
0
0
-7.8326046e-22
-7.3486998e-22
1.0885027e-22
0
-1.8036523e-23
2.1094184e-21
-1.9424571e-22
-3.1063174e-22
1.3020404e-22
6.7667334e-22
7.7714401e-24
-1.2583093e-22
1.0885027e-22
0
-1.8036523e-23
0
-1.9424571e-22
-3.1063174e-22
0
3.2718343e-22
4.431615e-22
9.9594084e-22
3.7776121e-21
-1.6985164e-21
-1.8036523e-23
0
-4.0727662e-21
-1.9637691e-21
2.4448761e-22
7.1166012e-22
-8.1735884e-22
1.7267206e-21
2.8061207e-21
0
-1.8036523e-23
-3.2207443e-21
-1.0973386e-23
-3.1063174e-22
2.5064954e-22
1.0141592e-21
7.7714401e-24
-8.181467e-23
1.0885027e-22
0
-2.5982028e-21
0
-2.0283422e-21
-4.9442929e-22
7.0586079e-24
0
7.7714401e-24
-1.323338e-21
9.7177491e-22
0
1.3585147e-21
2.253625e-21
-1.9424571e-22
6.5970238e-21
0
0
8.2432522e-22
-1.2583093e-22
1.9177725e-21
2.1103196e-21
1.1724002e-21
0
-3.7751804e-22
-3.1063174e-22
2.4797922e-22
3.6102292e-22
7.7714401e-24
1.6142286e-21
-7.4775634e-22
0
-1.0890276e-22
0
-2.1915085e-21
3.3030516e-21
0
1.0198413e-21
7.7714401e-24
-1.2583093e-22
1.0885027e-22
1.486848e-21
-1.8036523e-23
4.2792377e-21
-2.0015833e-21
6.3415319e-21
1.2663695e-22
3.5867101e-22
-4.1764918e-22
-7.1649103e-22
-8.3088715e-22
0
-1.8036523e-23
1.2030077e-21
-2.1782271e-21
-3.1063174e-22
0
0
7.7714401e-24
-1.2583093e-22
1.0885027e-22
2.1697996e-21
-1.8036523e-23
0
-3.9657279e-21
-3.1063174e-22
1.2576144e-22
0
-3.4998495e-23
-6.6847244e-22
-3.5357935e-21
1.3812693e-21
2.3194961e-21
1.1955367e-21
-5.6079036e-22
-3.1063174e-22
3.6186104e-22
-6.5065761e-22
-3.7068449e-22
-1.2583093e-22
1.0885027e-22
-1.4664723e-21
2.3109231e-21
-1.0092158e-21
3.5509648e-21
-3.6814266e-21
2.4272607e-22
-6.2844656e-22
4.2760931e-22
-1.2583093e-22
1.8741103e-21
0
-1.8036523e-23
0
3.354629e-21
4.6361292e-21
0
-3.1307084e-22
4.2622639e-22
-1.2583093e-22
1.867964e-21
4.9619835e-21
-1.8036523e-23
-4.1899127e-21
1.5736838e-21
-3.1063174e-22
0
6.6364074e-22
1.1734629e-21
-1.2583093e-22
1.0300466e-21
1.361117e-21
1.2245441e-21
-1.9963049e-21
-3.7751804e-22
-6.9823477e-21
-2.401426e-22
0
-3.2239301e-22
1.4724593e-21
-7.1989281e-22
0
-1.8036523e-23
0
-1.9424571e-22
6.3379636e-21
0
-3.0963886e-22
7.7714401e-24
-1.2583093e-22
1.0885027e-22
1.3511514e-21
-1.3430509e-21
-2.0729916e-21
-1.9424571e-22
-1.6913253e-21
0
0
7.7714401e-24
-1.2583093e-22
1.8436035e-21
0
-1.8036523e-23
0
1.5478903e-21
-3.1063174e-22
-1.1526442e-22
3.2726952e-22
-7.2992086e-22
-1.1796771e-21
1.8375691e-21
0
-1.3346802e-21
-1.1661956e-21
-1.9424571e-22
-3.1063174e-22
0
1.2647734e-21
1.1957915e-21
-1.2583093e-22
2.7376114e-21
-1.3363396e-21
-4.6318983e-21
0
-1.9236264e-21
-3.1063174e-22
0
6.8983355e-22
-8.1005962e-22
-1.2583093e-22
1.0885027e-22
-7.5598821e-22
2.2351671e-21
3.3856795e-21
3.2518305e-21
1.2310339e-21
-2.3506032e-22
0
4.1534411e-22
-1.2583093e-22
9.1952303e-22
0
1.1044334e-21
5.1379454e-21
-3.7751804e-22
-3.1063174e-22
0
3.4268278e-22
-7.1915817e-22
-1.2583093e-22
1.0059524e-21
0
-1.0890276e-22
0
-1.9424571e-22
-3.1063174e-22
1.2022479e-22
3.0177648e-22
4.1267316e-22
-1.2583093e-22
-1.5006243e-21
-3.472645e-21
1.0962151e-21
-1.9313695e-21
3.3973257e-21
-3.3601625e-21
0
6.2123713e-22
7.7714401e-24
-1.2583093e-22
1.0885027e-22
-7.4627558e-22
3.4941911e-21
0
-3.7733171e-21
-3.1063174e-22
0
-1.1982679e-21
4.1002176e-22
3.8771247e-22
1.0885027e-22
-7.4386964e-22
-1.8036523e-23
9.1302948e-23
1.4974267e-21
-3.1063174e-22
0
3.1836603e-22
1.1250273e-21
-1.2583093e-22
1.7900838e-21
-5.6093464e-22
1.0840003e-21
-1.9101972e-21
-1.9424571e-22
-5.0185805e-21
1.1857373e-22
3.1727139e-22
-3.9184689e-22
-1.189414e-21
2.5772422e-21
0
-2.3957591e-21
-1.2255046e-21
-5.5986501e-21
-3.3156709e-21
-3.4037702e-22
6.1246379e-22
4.0608101e-22
8.0196408e-22
4.2380959e-21
1.4734093e-21
-1.2028709e-21
1.8962114e-21
-1.9424571e-22
-1.8076407e-21
-1.1069865e-22
6.5008597e-22
1.1132484e-21
3.3620378e-22
2.5598241e-21
-5.5379593e-22
2.1618754e-21
-2.8338854e-21
-1.9424571e-22
-1.9859479e-21
0
0
7.7714401e-24
-1.2583093e-22
1.7668595e-21
-2.7473488e-21
3.4215714e-21
0
-1.8551234e-21
-3.1063174e-22
0
0
7.7714401e-24
-1.2583093e-22
1.0885027e-22
-1.2786985e-21
-1.8036523e-23
1.826059e-22
-1.9424571e-22
-3.1063174e-22
1.0948513e-22
2.9196036e-22
7.7714401e-24
-1.2583093e-22
1.0885027e-22
1.2740088e-21
-1.8036523e-23
0
-1.9424571e-22
5.7738383e-21
0
6.0167688e-22
7.7714401e-24
-1.2583093e-22
-6.6685527e-22
-5.4439923e-22
-3.3310642e-21
-1.8616933e-21
-2.0201886e-21
1.1591261e-21
0
3.0972045e-22
3.5555871e-22
-1.2583093e-22
1.0885027e-22
-3.3422404e-21
-1.8036523e-23
-3.7097309e-21
1.4424003e-21
-3.1063174e-22
-1.1534353e-22
0
7.7714401e-24
-1.6989138e-21
1.7383051e-21
-1.3503117e-21
9.5728724e-22
1.0153343e-21
-1.9424571e-22
-3.1063174e-22
0
2.8770075e-22
8.2656305e-22
-6.1903222e-22
1.0885027e-22
0
1.1351094e-21
0
-1.9424571e-22
-3.1063174e-22
2.220428e-22
-3.0654331e-22
7.7714401e-24
-1.2583093e-22
1.0885027e-22
0
-1.8036523e-23
0
1.4244588e-21
-3.1063174e-22
0
6.1098406e-22
-3.3494173e-22
-1.1050114e-21
1.9825285e-22
-1.3364987e-21
-1.8036523e-23
3.838213e-21
-3.6030538e-21
-1.7536346e-21
-2.1341016e-22
6.088892e-22
1.4163664e-21
-1.2583093e-22
1.7158362e-21
-9.0268943e-23
-1.8036523e-23
1.001853e-21
-1.8010987e-21
-3.1063174e-22
0
3.0340101e-22
7.7714401e-24
-1.2583093e-22
2.4662792e-21
-1.2371053e-21
-1.8036523e-23
9.1302948e-23
-1.9424571e-22
-3.1063174e-22
0
0
7.7714401e-24
-1.2583093e-22
9.5148892e-22
2.6456741e-21
-1.2427112e-21
0
2.9959306e-21
-3.1063174e-22
-7.0586079e-24
3.2122303e-22
7.7714401e-24
3.5661635e-22
8.5932382e-22
-1.9323404e-21
-1.2388862e-21
0
-1.9424571e-22
-7.7879763e-21
1.0514829e-22
3.2019087e-22
3.8701589e-22
-1.2583093e-22
1.6936951e-21
5.215029e-22
7.2829712e-23
-1.0798713e-21
-1.0973386e-23
5.540105e-21
1.0476265e-22
6.184273e-22
1.0134929e-21
-1.2583093e-22
-1.5599126e-21
1.8285844e-21
-3.2942965e-21
3.7585043e-21
-5.1103248e-21
-3.317507e-21
0
5.964804e-22
7.1856332e-22
-1.080148e-21
1.6827461e-21
0
2.0374156e-21
0
-1.9424571e-22
-3.1063174e-22
0
1.4463014e-21
7.7714401e-24
-1.2583093e-22
1.0885027e-22
1.2101308e-21
-1.0890276e-22
-8.8742925e-22
-1.9424571e-22
-3.1063174e-22
1.0361421e-22
8.687091e-22
7.136723e-22
-1.2583093e-22
1.0885027e-22
-1.8988078e-21
2.1132325e-21
4.6034787e-21
-1.9424571e-22
-3.1063174e-22
0
1.9897722e-23
3.3812087e-22
-1.2583093e-22
1.0885027e-22
-1.2915396e-21
-1.8036523e-23
8.8093181e-22
-1.9424571e-22
2.6550557e-21
0
0
7.7714401e-24
-1.2583093e-22
3.2133253e-21
1.2871339e-21
-1.8036523e-23
3.6934097e-21
-1.9424571e-22
5.4165402e-21
-1.0247835e-22
1.1328979e-21
7.7714401e-24
-6.3831966e-22
1.0885027e-22
0
-1.8036523e-23
0
-6.7336041e-21
4.0154487e-21
0
8.5661551e-22
7.7714401e-24
1.8292189e-21
1.0885027e-22
1.2783709e-21
9.8728048e-22
0
-1.9424571e-22
-3.1063174e-22
0
1.1447923e-21
7.7714401e-24
-1.2583093e-22
1.6450517e-21
-1.1837445e-21
-1.0890276e-22
-8.680793e-22
7.8318222e-21
-3.1063174e-22
0
1.1209149e-21
7.7714401e-24
-1.2583093e-22
1.0885027e-22
0
1.0707861e-21
0
-1.720532e-21
-3.1063174e-22
3.170669e-22
5.7837265e-22
7.7714401e-24
-6.314848e-22
9.163558e-22
1.2653465e-21
-1.1940654e-21
2.6764736e-21
-6.6435447e-21
-1.6712479e-21
7.0586079e-24
0
-1.6875743e-21
-1.0897362e-21
1.6291914e-21
-1.1707679e-21
9.7261323e-22
0
-1.9424571e-22
-5.9169332e-21
0
1.9897722e-23
7.7714401e-24
3.7644299e-22
1.0885027e-22
0
9.6897998e-22
-8.554143e-22
-1.7038004e-21
3.9251283e-21
0
5.3267315e-22
1.7341007e-21
2.8672979e-22
9.0848371e-22
-1.162196e-21
9.6536005e-22
0
4.3178092e-21
-3.1063174e-22
-9.9509913e-23
1.9897722e-23
3.689731e-22
-1.2583093e-22
-2.0140279e-21
1.1579335e-21
-1.8036523e-23
2.7300597e-21
1.4875288e-21
3.7116637e-21
0
-5.2877311e-22
1.002333e-21
-1.5295495e-21
1.0885027e-22
0
-2.152162e-21
1.600771e-21
2.9750394e-21
2.5448615e-21
3.0340262e-22
0
1.3149425e-21
-2.4717226e-21
1.0885027e-22
-1.1494556e-21
1.8363297e-21
3.5543422e-21
-1.6817764e-21
-3.1063174e-22
0
0
7.7714401e-24
-1.2583093e-22
1.5979905e-21
1.2355088e-21
9.510126e-22
-1.6796852e-21
-1.9424571e-22
2.5253003e-21
0
0
6.3534325e-22
-1.6984719e-22
2.2901589e-21
0
-1.8036523e-23
2.5102873e-21
-3.3307972e-21
-3.1063174e-22
-9.7698464e-23
3.0032468e-22
1.3010817e-21
-1.2583093e-22
1.4983395e-21
-2.3639787e-21
-1.8036523e-23
1.941296e-21
-1.9424571e-22
1.0057265e-21
-5.0081796e-22
5.5894291e-22
7.7714401e-24
2.1871193e-21
1.0885027e-22
-1.1326854e-21
1.0312558e-21
-8.3063594e-22
-1.9424571e-22
1.1846962e-21
0
0
7.7714401e-24
-2.8739727e-21
-5.8080769e-22
-2.4376003e-21
-1.0890276e-22
-2.5740716e-21
1.2662064e-21
-3.1063174e-22
0
0
7.7714401e-24
-1.2583093e-22
1.5725101e-21
1.1243923e-21
-9.6944535e-22
0
-1.9424571e-22
2.293224e-21
0
0
6.6668905e-22
-1.2583093e-22
-1.2603668e-21
0
9.2988298e-22
-4.1076512e-21
1.2555135e-21
9.1370344e-21
0
-5.3147099e-22
1.0141432e-21
-1.2583093e-22
1.0885027e-22
0
-1.8036523e-23
8.1851724e-22
-1.9424571e-22
5.0427483e-21
-1.98195e-22
0
6.6217783e-22
-1.2583093e-22
1.557445e-21
0
1.6369595e-22
0
2.6840435e-21
-3.1063174e-22
9.5217697e-23
0
7.7714401e-24
-1.2583093e-22
1.0885027e-22
0
2.0387521e-21
-1.6250487e-21
-6.2962564e-21
-3.1063174e-22
-9.4868481e-23
0
7.7714401e-24
-1.2583093e-22
2.2221138e-21
0
-1.0429924e-21
3.4207834e-21
2.846242e-21
-3.1063174e-22
-4.8671995e-22
0
3.1023719e-22
6.9434066e-22
7.8099638e-22
1.0998754e-21
1.9341574e-21
0
-4.6476227e-21
-4.3150493e-21
1.012325e-22
7.9318655e-22
1.6000935e-21
-1.9359003e-21
1.0885027e-22
0
-1.8036523e-23
-5.0956119e-21
-3.213814e-21
3.6797735e-21
4.8325972e-22
5.0041867e-22
7.7714401e-24
-1.2583093e-22
-1.3150021e-21
0
-3.8951684e-21
-1.7839456e-21
2.8149203e-21
-8.2635204e-21
3.8099613e-22
0
-3.3414851e-22
-1.8792759e-21
1.0885027e-22
1.0878182e-21
-1.8036523e-23
-3.3735394e-21
-4.6008124e-21
-1.5702108e-21
0
7.4513218e-22
1.8816285e-21
8.1378122e-22
2.185272e-21
0
1.9070012e-21
0
2.7942301e-21
-3.1063174e-22
9.9858529e-23
0
-3.3195824e-22
-1.2583093e-22
1.4286714e-21
-1.0798536e-21
7.2829712e-23
9.1302948e-23
-4.3866186e-21
-2.8113454e-21
0
-2.4655886e-22
9.3815328e-22
-1.4378642e-21
3.6645095e-21
9.0268943e-23
-1.9296451e-21
0
1.381359e-21
-3.1063174e-22
0
5.3110463e-22
7.7714401e-24
-9.6807526e-22
1.0885027e-22
0
-1.8321012e-21
-1.5721894e-21
-1.9424571e-22
-3.1063174e-22
1.9062384e-22
2.4475365e-22
-2.8593294e-22
-3.9900626e-21
-1.1965025e-21
0
-1.8036523e-23
0
-1.9424571e-22
-3.1063174e-22
0
2.43856e-22
7.7714401e-24
-5.8788605e-22
1.0885027e-22
1.0640989e-21
-1.8036523e-23
0
2.7431649e-21
-2.7748608e-21
0
7.8857811e-22
5.0541375e-23
-1.4633805e-21
1.4940483e-21
-9.0268943e-23
9.6991888e-22
3.292515e-21
1.177773e-21
2.3283572e-21
2.8644661e-22
0
-1.1541673e-21
2.8914719e-22
1.0885027e-22
0
-1.8965008e-21
9.1302948e-23
-1.9424571e-22
-3.1063174e-22
0
-2.6108049e-22
1.2082187e-21
-1.4102157e-21
1.0885027e-22
0
-1.8036523e-23
0
-1.9424571e-22
-3.1063174e-22
1.8728227e-22
-5.0049416e-22
-2.8058642e-22
-1.3616503e-21
1.4798434e-21
1.0485741e-21
9.6008468e-22
1.5379086e-21
-3.0914744e-21
-4.1368444e-21
-2.6934403e-22
4.9873155e-22
9.1244227e-22
-5.8027619e-22
3.479881e-21
9.0268943e-23
-1.7860384e-21
0
1.341028e-21
1.0828513e-21
0
4.9697541e-22
-1.7097082e-21
-1.2583093e-22
1.47046e-21
0
-8.9879533e-22
-1.5266486e-21
-1.5412886e-21
-3.1063174e-22
-8.9123997e-23
-7.3288969e-22
7.7714401e-24
-1.2583093e-22
7.4262092e-22
0
2.7054155e-21
-3.133402e-21
2.4899594e-21
-2.7122889e-21
2.7344999e-22
-2.3679234e-22
8.6022387e-22
1.1359745e-21
-1.9642936e-21
0
-4.5713199e-21
-1.6067739e-21
-1.531426e-21
-1.0249623e-20
0
0
-5.5844594e-22
-2.2360684e-21
-5.2028015e-22
0
-2.6313475e-21
4.712345e-21
-1.0973386e-23
3.4492756e-21
0
0
6.1468208e-22
-5.2878858e-22
1.4518989e-21
2.0514207e-21
-2.7126291e-21
-1.5956782e-21
-1.9424571e-22
3.4361597e-21
0
9.5668391e-22
3.3157723e-22
-1.2583093e-22
-5.1567385e-22
1.0219486e-21
8.4668919e-22
1.4988579e-21
-1.9424571e-22
-3.1063174e-22
9.4560217e-23
-2.5323535e-22
-5.5223886e-22
1.562231e-21
1.4427202e-21
2.12667e-21
2.7483589e-21
-1.5846637e-21
3.9420405e-21
4.589042e-21
2.6154209e-22
0
3.295196e-22
-8.181467e-23
1.4381561e-21
9.2419735e-22
2.6480134e-21
-1.4878839e-21
2.6147041e-21
-4.0183648e-21
0
4.8315613e-22
7.7714401e-24
-1.2583093e-22
1.0885027e-22
1.1010146e-21
7.2829712e-23
1.5737299e-21
1.2970504e-21
-3.1063174e-22
0
-1.9897722e-23
9.2411818e-22
-1.2583093e-22
1.9825285e-22
-9.0268943e-23
-3.6990737e-21
0
-1.9424571e-22
-3.9925635e-21
0
0
7.7714401e-24
-1.2583093e-22
1.0885027e-22
2.0969596e-21
-1.0890276e-22
0
-1.9424571e-22
-3.1063174e-22
9.2967368e-23
6.8727008e-22
-1.6416768e-21
-1.2583093e-22
-1.72387e-21
-9.0268943e-23
7.2829712e-23
-3.1149583e-21
-1.9424571e-22
3.3456883e-21
0
-4.7639733e-22
7.7714401e-24
3.0947071e-22
1.0885027e-22
-1.9919983e-21
8.2473198e-22
0
-4.2443382e-21
4.4862145e-21
0
-4.747231e-22
5.535619e-22
-1.3393982e-21
1.0885027e-22
0
-9.4858038e-22
1.5467442e-21
6.4100908e-21
-5.0905595e-21
-8.4966993e-23
-2.2657865e-22
7.7714401e-24
-1.2583093e-22
1.3172697e-21
-9.0268943e-23
-1.8036523e-23
-1.826059e-22
-1.9424571e-22
-3.1063174e-22
-4.373941e-22
6.7724302e-22
7.7714401e-24
-1.2583093e-22
7.1084407e-22
9.0268943e-23
8.1549335e-22
-1.4447851e-21
1.0805647e-21
-2.5918714e-21
0
0
7.7714401e-24
-1.3265771e-21
7.0863616e-22
0
-1.8036523e-23
2.9702752e-21
3.799431e-21
-3.1063174e-22
0
9.1627703e-22
7.7714401e-24
-1.2583093e-22
1.9910115e-21
1.8654677e-21
1.7276838e-21
-9.1302948e-23
2.51998e-21
1.9539055e-21
0
0
5.8639642e-22
-1.2583093e-22
1.0885027e-22
9.0268943e-23
-1.8036523e-23
0
-1.9424571e-22
5.6975428e-21
0
-1.9897722e-23
-1.102778e-21
-9.3254687e-22
1.9778854e-21
1.0609776e-21
-1.8036523e-23
0
-1.9424571e-22
2.1211227e-21
-8.311433e-23
0
1.1144048e-21
3.0018114e-21
2.5623938e-21
9.0268943e-23
-1.8036523e-23
-1.3271816e-21
-1.4458497e-21
-3.1063174e-22
0
0
5.3775226e-22
-1.6840781e-21
-5.6941988e-22
2.9810734e-21
-2.3732356e-21
1.4132822e-21
-4.1185591e-21
-3.1063174e-22
-1.6501161e-22
8.9995962e-22
-5.202657e-22
1.3828466e-21
-4.7785766e-22
-1.0503365e-21
8.8519454e-22
-1.499402e-21
2.4739073e-21
-2.533946e-21
8.2203201e-23
0
-5.1832904e-22
-1.2583093e-22
-4.7570582e-22
9.5654634e-22
2.6827183e-21
-2.8058693e-21
-1.9424571e-22
-2.7095892e-21
2.5276376e-22
2.1840458e-22
5.3194244e-22
-1.2583093e-22
1.3630773e-21
0
-1.0890276e-22
0
3.6890572e-21
-3.1063174e-22
0
1.147711e-21
7.7714401e-24
-1.2583093e-22
-1.6319783e-21
0
9.671553e-22
5.8445604e-21
-1.4230659e-21
-3.1063174e-22
-1.6966273e-22
2.3670322e-22
7.7714401e-24
-1.2583093e-22
1.0885027e-22
1.8018518e-21
-1.8036523e-23
2.8664133e-21
-1.4185591e-21
-3.1063174e-22
0
9.038369e-22
-5.1065343e-22
-3.1762913e-21
-1.6192326e-21
0
-1.8036523e-23
0
-1.9424571e-22
1.8722098e-21
0
4.50334e-22
7.7714401e-24
-1.2583093e-22
1.0885027e-22
3.9370727e-21
1.5712666e-21
4.3147941e-21
1.0211038e-21
-2.4854677e-21
1.608216e-22
2.144288e-22
7.7714401e-24
-1.6984719e-22
1.0885027e-22
0
7.7370059e-22
0
-1.9424571e-22
-2.4774912e-21
0
1.3216498e-21
7.7714401e-24
-1.2583093e-22
1.3376789e-21
9.322577e-22
7.7079692e-22
0
1.1954778e-21
-3.1063174e-22
0
6.5847421e-22
1.0722638e-21
-1.6294506e-21
7.658764e-22
2.8767846e-21
-1.8036523e-23
1.4535995e-21
7.384457e-21
6.5099469e-21
0
2.1207818e-22
5.5952901e-22
-8.9697238e-22
1.8054757e-21
-9.2543206e-22
-8.0109441e-22
9.1302948e-23
-1.3918637e-21
-1.268342e-22
-1.5847527e-22
0
7.7714401e-24
-1.2583093e-22
3.6684612e-21
0
-1.8036523e-23
0
-1.3874713e-21
3.0760344e-21
8.6005637e-23
4.6084627e-22
7.7714401e-24
-1.6984719e-22
1.0885027e-22
1.9275816e-21
7.2829712e-23
0
-5.1329156e-21
-1.3743391e-21
0
0
5.5394928e-22
-1.2583093e-22
2.3462188e-21
0
2.3962508e-21
4.2098692e-21
-1.5620072e-21
-3.1063174e-22
-1.5673801e-22
1.8908629e-22
5.5210301e-22
-1.6028804e-21
1.0885027e-22
-1.0021992e-21
-1.8036523e-23
0
-1.9424571e-22
-3.1063174e-22
0
-4.3633281e-22
1.0499856e-21
-1.2583093e-22
-5.3579909e-22
-1.8171713e-21
-1.8036523e-23
4.0890798e-21
-1.9424571e-22
-1.3626783e-21
8.4853824e-23
6.4225945e-22
-1.0307773e-21
-1.6984719e-22
1.2152711e-21
9.9552237e-22
-8.7488643e-22
-3.0206218e-21
-1.3657501e-21
3.0177303e-21
0
-1.0931585e-21
7.7714401e-24
-1.6984719e-22
1.0885027e-22
1.9844047e-21
7.2829712e-23
9.1302948e-23
9.7296223e-22
-2.3993196e-21
-1.5445125e-22
2.05935e-22
7.7714401e-24
-1.2583093e-22
1.8457328e-21
8.9862545e-22
7.4233886e-22
4.1365579e-21
3.4778078e-21
4.0352205e-21
0
0
1.0354041e-21
-1.2583093e-22
1.0885027e-22
2.7762582e-21
-1.8036523e-23
1.3131503e-21
-1.9424571e-22
-3.1063174e-22
0
6.3317939e-22
5.4116671e-22
5.750624e-22
1.0885027e-22
8.9204606e-22
-2.3733274e-21
0
-1.3486583e-21
4.0047476e-21
0
0
7.7714401e-24
-1.5664927e-21
3.4570924e-21
-8.8877441e-22
1.5769095e-21
4.0019104e-21
2.2893839e-21
8.4736186e-21
0
8.7141508e-22
7.7714401e-24
-1.5613705e-21
6.4999822e-22
-1.7710296e-21
-1.5166001e-21
-1.2987551e-21
-1.9424571e-22
-3.1063174e-22
8.2878445e-23
4.2427019e-22
7.7714401e-24
-1.2583093e-22
1.0885027e-22
-2.7370705e-21
-1.8036523e-23
0
-3.6195184e-21
-3.1063174e-22
0
2.014447e-22
7.7714401e-24
-1.2583093e-22
1.9825285e-22
-9.0268943e-23
2.2133509e-21
0
-1.9424571e-22
-3.1063174e-22
0
0
5.3223548e-22
5.623035e-22
7.3346852e-22
2.6274224e-21
-7.5910437e-22
0
-1.9424571e-22
3.9295372e-21
7.4988675e-23
0
5.3046889e-22
-1.2583093e-22
1.0885027e-22
0
-1.8036523e-23
0
-1.9424571e-22
-3.1063174e-22
7.4713644e-23
0
5.2870869e-22
-1.2583093e-22
-1.5744434e-21
-9.5966407e-22
-1.8036523e-23
0
-1.9424571e-22
-3.1063174e-22
1.4887927e-22
6.1541481e-22
7.7714401e-24
-3.6168182e-21
1.0885027e-22
-1.7324133e-21
-7.5098063e-22
0
-1.9424571e-22
-3.1063174e-22
0
0
7.7714401e-24
-1.2583093e-22
1.0885027e-22
0
-1.8036523e-23
1.265777e-21
-1.9424571e-22
-3.1063174e-22
0
-1.9705229e-22
7.7714401e-24
-1.6984719e-22
1.0885027e-22
0
-2.2916358e-21
1.2611347e-21
-1.4902839e-21
-2.301897e-21
0
0
9.9292348e-22
-1.2583093e-22
2.8159809e-21
1.8036909e-21
3.0633332e-21
-1.2565095e-21
-1.9424571e-22
-2.2945941e-21
8.0412183e-23
-2.1550726e-22
1.5444699e-21
-1.5111697e-21
1.0885027e-22
9.0268943e-23
2.2395815e-21
2.503802e-21
1.0936452e-21
-4.2640034e-21
0
3.8978429e-22
1.0715635e-21
-1.2583093e-22
2.7968148e-21
-2.6415843e-21
7.9243147e-22
-2.4946194e-21
-5.6970827e-21
-3.1063174e-22
0
-6.0242982e-22
7.7714401e-24
-1.2583093e-22
1.0885027e-22
8.4731942e-22
1.4158886e-21
-3.8195084e-21
-3.7751804e-22
1.6515816e-21
0
0
7.7714401e-24
-1.2583093e-22
1.0885027e-22
-1.5981548e-21
-8.2323588e-22
9.1302948e-23
8.9826376e-22
-3.1063174e-22
1.5162535e-22
1.3890851e-21
5.0541375e-23
1.9448312e-21
1.226283e-21
0
-1.0890276e-22
-1.3249392e-21
-1.9424571e-22
1.6372149e-21
0
4.0399521e-22
1.9369792e-21
-1.2583093e-22
4.3846953e-21
-9.2829982e-22
2.2910051e-21
1.3204149e-21
-1.9424571e-22
-3.1063174e-22
0
1.9134438e-22
7.7714401e-24
-1.6984719e-22
1.0885027e-22
0
-1.8036523e-23
2.631814e-21
5.3916915e-21
-4.3615999e-21
0
-8.2226358e-22
7.7714401e-24
-1.4771108e-21
4.3546976e-21
9.2216394e-22
-1.8036523e-23
0
-1.454088e-21
-3.1063174e-22
0
-1.8994343e-22
7.7714401e-24
-2.1675673e-21
1.0885027e-22
-2.5768011e-21
1.4754889e-21
3.9208226e-21
-1.9424571e-22
-2.2300601e-21
2.8387021e-22
-3.9839133e-22
9.5892604e-22
-8.1869338e-22
2.2168854e-21
-8.2580424e-22
-1.8036523e-23
1.3024825e-21
-1.9424571e-22
-3.1063174e-22
-1.4141454e-22
1.8855272e-22
-4.4475509e-22
1.901601e-21
1.1144648e-21
1.645551e-21
-1.8036523e-23
1.1154345e-21
1.9352909e-21
3.500118e-21
0
-1.9897722e-23
2.3476458e-21
-1.2583093e-22
2.1127032e-21
0
-2.7926021e-21
0
2.1107532e-21
1.5877552e-21
0
-1.8717221e-22
9.4896797e-22
-1.49733e-21
1.6956305e-21
-3.4475437e-21
-1.8036523e-23
0
-2.3081906e-21
-3.1063174e-22
0
3.9286921e-22
5.0541375e-23
-1.4486066e-21
2.1874341e-21
0
4.11334e-21
1.2848117e-21
6.4908747e-21
-3.1063174e-22
1.3935136e-22
3.9795444e-23
9.4239005e-22
5.552201e-22
1.0885027e-22
-3.2430861e-21
-1.3901114e-21
0
4.0026892e-21
-3.1063174e-22
0
3.9013846e-22
-4.7928738e-22
1.1875821e-21
1.0961589e-21
-1.7058649e-21
1.3490062e-21
-9.1302948e-23
1.8965255e-21
-3.1063174e-22
1.3833107e-22
5.73222e-22
-9.2031734e-22
-1.4786047e-21
1.0925379e-21
-8.0483531e-22
-1.8036523e-23
-2.3608503e-21
2.0721298e-21
3.6008241e-21
0
1.8376498e-22
7.7714401e-24
-1.2583093e-22
1.0885027e-22
-1.6037671e-21
-1.8036523e-23
4.8869894e-21
-2.269709e-21
3.5871528e-21
0
-1.8309102e-22
7.7714401e-24
-1.2583093e-22
1.9825285e-22
-7.9894263e-22
-1.0890276e-22
9.1302948e-23
-1.9424571e-22
-4.1947951e-21
0
2.0231725e-22
1.8445388e-21
1.1690621e-21
2.1440611e-21
1.6822939e-21
-1.8036523e-23
1.2587879e-21
-1.9424571e-22
-4.1812239e-21
0
4.0329642e-22
-4.2842973e-22
-1.4161362e-21
1.9825285e-22
8.8336198e-22
-2.8840839e-21
0
7.3567888e-21
-3.1063174e-22
0
5.6314944e-22
5.0541375e-23
-8.181467e-23
1.0746311e-21
0
1.4100647e-21
-3.5681139e-21
1.0116181e-21
3.5329668e-21
0
-5.4125933e-22
7.7714401e-24
-1.4070114e-21
1.1604917e-21
0
4.1606879e-21
-1.1546866e-21
-1.3963591e-21
3.5195445e-21
0
1.7975808e-22
1.8189889e-21
-1.2583093e-22
1.0885027e-22
0
-2.6729251e-21
0
-3.2395591e-21
-3.1063174e-22
0
-1.9897722e-23
7.7714401e-24
1.1022752e-21
3.0638338e-21
-8.7179102e-22
2.8088476e-21
-1.1462324e-21
-1.9424571e-22
-4.1141105e-21
2.6766293e-22
1.1303449e-21
7.7714401e-24
-1.2583093e-22
1.0885027e-22
-2.5165053e-21
-2.6534869e-21
3.5173885e-21
-4.2249346e-21
-3.1063174e-22
0
5.9693166e-23
4.3446147e-22
-1.3889616e-21
3.0428531e-21
-2.5079381e-21
-1.8036523e-23
0
5.0089094e-21
-3.1063174e-22
-1.328516e-22
1.7713546e-22
5.0541375e-23
-1.2583093e-22
1.1429753e-21
1.7264474e-21
-1.8036523e-23
-2.3586369e-21
-1.3778124e-21
5.2431672e-21
-2.7178733e-22
1.9638354e-22
8.9767329e-22
-2.6342403e-21
-1.7736651e-21
-7.7011992e-22
1.2852433e-21
-1.1295092e-21
9.8565239e-22
-3.1063174e-22
0
-3.9147253e-22
7.7714401e-24
-1.2583093e-22
1.0885027e-22
1.7151288e-21
4.059196e-21
3.5587059e-21
2.9679384e-21
-3.1063174e-22
-4.0124431e-22
1.9897722e-23
8.9147088e-22
-1.2583093e-22
2.0669851e-21
7.6448137e-22
-1.8036523e-23
-4.6675632e-21
9.7835544e-22
-3.8513875e-21
0
0
4.2669411e-22
-8.181467e-23
1.0885027e-22
0
-1.8036523e-23
9.1302948e-23
-1.9424571e-22
-4.9442929e-22
2.6792502e-22
7.155415e-22
8.8531391e-22
-1.2583093e-22
2.0533029e-21
7.5888412e-22
-1.8036523e-23
0
1.9531973e-21
-3.1063174e-22
0
3.6644395e-22
7.7714401e-24
-1.2583093e-22
1.1223761e-21
3.1146724e-21
-1.8036523e-23
1.1089479e-21
-3.1296961e-21
-3.1063174e-22
0
3.6517299e-22
5.0541375e-23
-1.2583093e-22
-8.1188377e-22
-3.1938493e-21
1.4385585e-21
0
-1.9424571e-22
1.6177145e-21
7.0586079e-24
7.2781331e-22
7.7714401e-24
-1.2583093e-22
1.0885027e-22
-1.410861e-21
-2.5584102e-21
4.5859203e-21
-4.0795231e-21
3.3494666e-21
0
3.62645e-22
7.7714401e-24
-1.3009645e-21
1.1122456e-21
7.4781225e-22
1.4292244e-21
-3.4729798e-21
-1.3452751e-21
-2.0424075e-21
2.6317628e-22
-5.1223534e-22
7.7714401e-24
-1.3406708e-21
1.0885027e-22
8.3533853e-22
2.5946037e-21
0
-1.9424571e-22
-3.1063174e-22
1.3464778e-22
3.9993097e-22
7.7714401e-24
-1.3363768e-21
1.0885027e-22
-3.0596171e-21
-1.8036523e-23
2.3601278e-21
-1.9424571e-22
5.0304546e-21
0
5.2838266e-22
-3.9901651e-22
-1.6984719e-22
1.1022261e-21
0
-1.2696918e-21
2.1695357e-21
-1.1513938e-21
3.2987486e-21
2.6036863e-22
3.5764442e-22
7.7714401e-24
-7.0482527e-22
-7.9180759e-22
1.5640727e-21
-1.8036523e-23
0
-4.192069e-21
-2.0171414e-21
0
1.9897722e-23
8.5816061e-22
1.0279108e-21
1.0885027e-22
1.4683986e-21
-1.3513939e-21
4.4899085e-21
3.7895877e-21
-3.8949313e-21
1.2572769e-22
3.5517156e-22
4.5286998e-22
-1.2583093e-22
-2.662743e-21
-8.2177551e-22
-1.8036523e-23
1.1641792e-21
-1.9424571e-22
1.3833835e-21
-7.0586079e-24
1.9897722e-23
1.2958704e-21
-1.2583093e-22
1.0885027e-22
7.2882371e-22
1.2153574e-21
0
-1.9424571e-22
-1.998434e-21
-3.8853869e-22
3.7261454e-22
1.7336129e-21
-6.9637795e-22
1.0857704e-21
-1.4523015e-21
1.3017002e-21
2.3126481e-21
-1.9424571e-22
-3.1063174e-22
1.2434942e-22
8.8868929e-22
7.7714401e-24
-1.2583093e-22
1.0885027e-22
7.2348753e-22
5.06115e-21
0
2.7978605e-21
-1.9860765e-21
-2.5484534e-22
6.8066235e-22
4.4700015e-22
1.0509247e-21
2.930714e-21
0
2.512576e-21
0
-1.9424571e-22
-3.1063174e-22
1.2343898e-22
6.7823893e-22
7.7714401e-24
1.002754e-21
1.0760411e-21
1.3461119e-21
1.1973626e-21
0
-1.9424571e-22
-1.9738095e-21
0
0
5.0541375e-23
1.6488704e-21
1.9473908e-21
2.1466694e-21
-1.8036523e-23
0
-1.9424571e-22
-3.1063174e-22
-2.52129e-22
3.4665824e-22
8.3476663e-22
-1.2583093e-22
1.0885027e-22
0
1.2793301e-21
0
-1.9424571e-22
-3.1063174e-22
1.220858e-22
1.0164818e-21
7.7714401e-24
-1.3300765e-21
1.0885027e-22
9.8112421e-22
-1.8036523e-23
0
-1.9424571e-22
-3.1063174e-22
0
1.9897722e-23
4.3978312e-22
-2.9941616e-21
9.7383193e-22
-9.0268943e-23
-1.8036523e-23
0
-1.9424571e-22
-3.1063174e-22
0
6.8615241e-22
5.0541375e-23
-1.2583093e-22
1.0600621e-21
0
-1.8036523e-23
0
5.4640504e-21
-1.9435336e-21
0
1.9897722e-23
4.3693322e-22
-1.2583093e-22
9.6749882e-22
7.9279957e-22
-1.2069345e-21
3.2737406e-21
-1.9424571e-22
-4.9442929e-22
2.4060922e-22
1.0022323e-21
-8.0494801e-22
-2.369703e-21
9.6434973e-22
2.2804002e-21
3.5355766e-21
0
-2.189164e-21
-3.1063174e-22
-7.0586079e-24
-3.395334e-22
1.5847927e-21
-1.2583093e-22
1.0506147e-21
-2.2726987e-21
-1.8036523e-23
0
-1.9424571e-22
-3.1063174e-22
0
0
7.7714401e-24
-1.2583093e-22
1.0885027e-22
1.4799275e-21
2.5154258e-21
-1.2016888e-21
3.58579e-21
-3.1063174e-22
1.1898579e-22
0
7.7714401e-24
-2.9335386e-21
2.8260189e-21
0
2.4159344e-21
0
5.3643845e-21
-3.1063174e-22
0
3.3602945e-22
8.0925753e-22
-1.2097112e-21
1.0885027e-22
8.7027984e-22
-1.8036523e-23
0
-3.7751804e-22
-3.1063174e-22
0
-2.950746e-22
1.9831452e-21
-1.2583093e-22
1.0885027e-22
-6.8721234e-22
-2.4348522e-21
3.1150372e-21
-1.0973386e-23
4.6474831e-21
-2.3536284e-22
6.4753196e-22
7.7714401e-24
9.5011348e-22
1.0885027e-22
-9.0268943e-23
2.3902484e-21
-1.0042148e-21