/*--------------------------------*- C++ -*----------------------------------*\
  =========                 |
  \\      /  F ield         | OpenFOAM: The Open Source CFD Toolbox
   \\    /   O peration     | Website:  https://openfoam.org
    \\  /    A nd           | Version:  7
     \\/     M anipulation  |
\*---------------------------------------------------------------------------*/
FoamFile
{
    version     2.0;
    format      ascii;
    class       volScalarField;
    location    "80000";
    object      enthalpy;
}
// * * * * * * * * * * * * * * * * * * * * * * * * * * * * * * * * * * * * * //

dimensions      [0 2 -2 0 0 0 0];

internalField   nonuniform List<scalar> 
87000
(
-4136832.1
-4136830.3
-4136825.5
-4136815.4
-4136793.7
-4136739.5
-4136563.4
-4135675.2
-4126499.7
-3902292.5
-4136752.4
-4136739.1
-4136703.7
-4136628
-4136461.4
-4136050
-4134810.1
-4129665.4
-4096366.7
-3795733.4
-4136547.2
-4136503.8
-4136388.6
-4136144.4
-4135616.5
-4134356.4
-4130800.3
-4117901.5
-4054863.2
-3708994.5
-4136131.4
-4136029
-4135758.5
-4135191.5
-4133988.6
-4131207.3
-4123798.2
-4099831.4
-4005802.9
-3638197.2
-4135409.3
-4135209
-4134683.5
-4133594.8
-4131328.3
-4126249.2
-4113448.9
-4076177.8
-3954524.1
-3585232.3
-4134281.3
-4133936.2
-4133036.5
-4131195.2
-4127436
-4119275.2
-4099806.1
-4048377.4
-3904839.7
-3546493.1
-4132649.5
-4132106.4
-4130700.4
-4127858.5
-4122171.6
-4110216.8
-4083192.9
-4017918
-3858486
-3516557.1
-4130421.2
-4129623.4
-4127572.1
-4123479.2
-4115453.7
-4099119.3
-4064075.5
-3986035.6
-3815852.2
-3491624.4
-4127511.4
-4126400.5
-4123564.1
-4117977.9
-4107246.8
-4086094.8
-4042974.5
-3953807.5
-3776996.9
-3470201.7
-4123844.2
-4122362.6
-4118607
-4111306.4
-4097571.5
-4071353.9
-4020430.1
-3921929
-3741716.1
-3451495.1
-4119354.8
-4117448
-4112649.1
-4103442.8
-4086480.8
-4055105.7
-3996861.6
-3890742.5
-3709415.8
-3434463
-4113989.1
-4111607.1
-4105654.5
-4094384.9
-4074047.4
-4037555.2
-3972613.6
-3860452.3
-3679616.6
-3418584.8
-4107701.9
-4104800.3
-4097599.2
-4084144.2
-4060350.7
-4018881.9
-3947890.4
-3831040.7
-3651777.8
-3403394.5
-4100454.8
-4096995
-4088466.1
-4072732.3
-4045446.1
-3999259.8
-3923017.7
-3802641.7
-3625709.4
-3388846.8
-4092220.7
-4088171
-4078254.9
-4060195.7
-4029482.9
-3978904.3
-3898168.1
-3775341.8
-3601301.1
-3374995.5
-4082981
-4078317.5
-4066976.9
-4046583.8
-4012553.1
-3957927.7
-3873380.7
-3748978.5
-3578198.3
-3361586.1
-4072722.9
-4067429.3
-4054645.2
-4031939.8
-3994734.1
-3936431.1
-3848714.1
-3723447.4
-3556167
-3348497.3
-4061438.2
-4055506
-4041277.2
-4016306.4
-3976096.8
-3914495.1
-3824197.8
-3698653.5
-3535014.2
-3335621.8
-4049124.4
-4042552.4
-4026892.3
-3999726.7
-3956706.3
-3892182.3
-3799841.3
-3674506.7
-3514582
-3322881.7
-4035780.5
-4028574
-4011511.4
-3982242.3
-3936614.6
-3869479
-3775555.7
-3650820.1
-3494636.8
-3310102.1
-4021400.3
-4013567.2
-3995131.7
-3963835
-3915881.2
-3846607.7
-3751491.9
-3627665.7
-3475219.5
-3297389.5
-4005993.6
-3997553.3
-3977808.3
-3944651.6
-3894638.5
-3823611.2
-3727760.5
-3605139.3
-3456417.5
-3284890.1
-3989581.8
-3980561.2
-3959587
-3924731.3
-3872895.3
-3800438.1
-3704233.4
-3583067.6
-3438046.8
-3272467.4
-3972179.3
-3962612.9
-3940497.1
-3904102.7
-3850684.2
-3777107.8
-3680872
-3561367
-3420012.2
-3260053.3
-3953804.9
-3943730.5
-3920566.1
-3882797.6
-3828038.4
-3753639.5
-3657657.1
-3539975.3
-3402246
-3247627.8
-3934478.7
-3923937.5
-3899823.9
-3860849.3
-3804986.8
-3730045.2
-3634570.3
-3518845.6
-3384692.9
-3235169.4
-3914222.5
-3903258.6
-3878300.3
-3838292.3
-3781560
-3706336.1
-3611595
-3497937.9
-3367301.2
-3222644.9
-3893061.1
-3881722.2
-3856028.4
-3815157.7
-3757779.9
-3682514.8
-3588704.1
-3477210.6
-3350037.5
-3210033.2
-3871020.6
-3859355.2
-3833036.3
-3791475.3
-3733667.9
-3658583.6
-3565881.5
-3456631.4
-3332869.8
-3197324.8
-3848129.4
-3836188.3
-3809359.3
-3767276.7
-3709244.9
-3634548.1
-3543114
-3436171.1
-3315769.3
-3184515.6
-3824419.7
-3812255.3
-3785029.8
-3742590.9
-3684530.3
-3610411.6
-3520385.2
-3415800.3
-3298701.5
-3171586
-3799926.5
-3787592.1
-3760082.8
-3717447.2
-3659541.5
-3586174.1
-3497671.5
-3395483.9
-3281639.2
-3158518.2
-3774689.1
-3762235.7
-3734551.6
-3691871.4
-3634290.1
-3561828.9
-3474963.1
-3375210.4
-3264567.3
-3145307.1
-3748746.1
-3736224
-3708470.8
-3665890.3
-3608792.7
-3537381.9
-3452252.4
-3354963.1
-3247473.2
-3131954.1
-3722140.6
-3709599
-3681878.1
-3639533.7
-3583067.5
-3512834.3
-3429521
-3334711.7
-3230326.5
-3118442.4
-3694917.6
-3682403.2
-3654809.6
-3612826.8
-3557126.4
-3488184
-3406752.1
-3314438.3
-3213114.6
-3104761.9
-3667123.3
-3654679.3
-3627301.8
-3585796.5
-3530980.3
-3463431.4
-3383948.2
-3294142.4
-3195834.3
-3090917.5
-3638804.5
-3626471.5
-3599392.7
-3558473.3
-3504650.3
-3438581.2
-3361101.6
-3273810.7
-3178472.8
-3076902.6
-3610008.2
-3597824.3
-3571120.7
-3530883.7
-3478152.6
-3413640.7
-3338200.3
-3253417.9
-3161006.6
-3062702
-3580781.4
-3568781.7
-3542523.8
-3503053
-3451492.9
-3388605.4
-3315241.8
-3232966.7
-3143438.7
-3048320
-3551174.9
-3539391.6
-3513638.6
-3475009.1
-3424694
-3363484
-3292227.6
-3212456.2
-3125772.3
-3033767.9
-3521239.5
-3509698
-3484501.3
-3446779.5
-3397775.3
-3338289.4
-3269155.7
-3191875.7
-3107995.6
-3019038.3
-3491017.9
-3479741.7
-3455151.2
-3418394.3
-3370752.2
-3313034.6
-3246042.9
-3171238.7
-3090118.7
-3004143
-3460559.5
-3449571.4
-3425628.6
-3389889.7
-3343659.3
-3287741.5
-3222904
-3150561.6
-3072159.2
-2989098.7
-3429929.3
-3419246.2
-3395988.9
-3361318.4
-3316565
-3262573.1
-3199911.3
-3130005.7
-3054262.4
-2974035.1
-3399242.3
-3388897.6
-3366402.5
-3332932.5
-3289445.8
-3237100.1
-3176734.5
-3109301.2
-3036209.9
-2958777.5
-3368496.2
-3358484.6
-3336714.9
-3304312.9
-3262122.5
-3211485.2
-3153282.2
-3088283.3
-3017820.3
-2943153.7
-3337660.6
-3327974.7
-3306919.3
-3275580
-3234773.7
-3185890.1
-3129794.2
-3067170.1
-2999276.3
-2927313
-3306761.6
-3297406.4
-3277073.7
-3246811.3
-3207425.9
-3160312.9
-3106300.4
-3046007
-2980627.9
-2911306.2
-3275845.5
-3266824.7
-3247223
-3218054.7
-3180109.1
-3134769.2
-3082823.2
-3024822.8
-2961907
-2895165.4
-3244961.3
-3236278.2
-3217415.2
-3189347.7
-3152850
-3109304.6
-3059497.5
-3003775.5
-2943269.1
-2879034.7
-3214215.2
-3205884.4
-3187790.5
-3160882.1
-3125946.9
-3083902.3
-3035875.6
-2982526.6
-2924453
-2862711.6
-3183620.2
-3175631
-3158279
-3132460.6
-3098903.9
-3058394.6
-3012212.7
-2961052.8
-2905340.7
-2846054.1
-3153140.4
-3145480.4
-3128843.5
-3104076.1
-3071867.4
-3032961.9
-2988652.1
-2939613.2
-2886183.2
-2829277.7
-3122797.8
-3115459.9
-3099522.1
-3075792.3
-3044925.7
-3007639.3
-2965212.1
-2918329.7
-2867152.2
-2812565.8
-3092674.6
-3085662
-3070433
-3047767.2
-3018291.6
-2982727.9
-2941865.3
-2896761
-2847914.9
-2795664.9
-3062797.5
-3056103.2
-3041562.4
-3019917.8
-2991743.7
-2957701.9
-2918468
-2875243.8
-2828609.3
-2778630.1
-3033182.5
-3026798.5
-3012929.2
-2992284.8
-2965400.2
-2932910
-2895488
-2853846.9
-2808991.9
-2761334.7
-3003837.1
-2997754
-2984534.6
-2964856.1
-2939206.9
-2908176.7
-2872381.5
-2832418.8
-2789433.5
-2743901.4
-2974752.7
-2968958.7
-2956365.5
-2937616.7
-2913159.2
-2883542.8
-2849357.8
-2811175.5
-2770014.5
-2726490.8
-2945960.7
-2940448.3
-2928465.4
-2910623
-2887339.2
-2859125.6
-2826555.7
-2790196.7
-2750645.6
-2708881.8
-2917500.5
-2912263.4
-2900877.8
-2883922.7
-2861790.1
-2834948.9
-2803946.2
-2769320
-2731608.7
-2691356.4
-2889390
-2884419.6
-2873612.7
-2857516.3
-2836496.7
-2810978.4
-2781472.5
-2748489.4
-2712518.2
-2674049
-2861645.4
-2856933.1
-2846685.2
-2831415.3
-2811467.2
-2787225.8
-2759165.6
-2727781.8
-2693534.4
-2656889.8
-2834289.3
-2829825.2
-2820113
-2805633.3
-2786710.6
-2763701.2
-2737035
-2707182.7
-2674584.9
-2639670
-2807363
-2803139.6
-2793947.5
-2780235.9
-2762312.3
-2740509.3
-2715211.9
-2686860.4
-2655885.7
-2622691.9
-2780898.3
-2776909.6
-2768225.6
-2755267.2
-2738323.6
-2717703
-2693748
-2666866.9
-2637477.2
-2605955.7
-2754885.8
-2751121.9
-2742924.9
-2730688
-2714680.3
-2695184.4
-2672513.5
-2647034.7
-2619134.1
-2589177.6
-2729318.1
-2725768.1
-2718034.2
-2706483.1
-2691360.9
-2672929.5
-2651476.7
-2627324.6
-2600829.7
-2572341.1
-2704179.1
-2700832.8
-2693537.7
-2682630.5
-2668340.7
-2650910.9
-2630605.7
-2607711.9
-2582551
-2555450.3
-2679457.1
-2676303.1
-2669417.7
-2659114.7
-2645607.7
-2629122.2
-2609900.4
-2588201
-2564309.5
-2538529
-2655128.2
-2652154
-2645653.5
-2635919.3
-2623152.4
-2607559.1
-2589361
-2568793.9
-2546116
-2521601.2
-2631171.9
-2628367.8
-2622232.1
-2613037.4
-2600970.9
-2586219.7
-2568990
-2549500.2
-2527982.9
-2504681.6
-2607576.7
-2604933.2
-2599143
-2590458.5
-2579054.5
-2565100.5
-2548790
-2530324.7
-2509913.7
-2487780.6
-2584329.3
-2581837.4
-2576373.9
-2568172.3
-2557396.1
-2544200.8
-2528764.8
-2511274.2
-2491919.3
-2470904.3
-2561418.3
-2559069.8
-2553915.7
-2546172.5
-2535992.7
-2523519.9
-2508914.9
-2492350.7
-2474004.2
-2454058.9
-2538831.9
-2536618.8
-2531757.6
-2524449.2
-2514836.5
-2503051.4
-2489236.3
-2473554.6
-2456170.7
-2437247.8
-2516557.9
-2514472.6
-2509892.1
-2503000.1
-2493925.1
-2482792
-2469730.4
-2454888.3
-2438418.8
-2420472.8
-2494594.4
-2492630.8
-2488318.5
-2481821.7
-2473256.6
-2462741.5
-2450395.9
-2436351.6
-2420751.9
-2403737.4
-2472935.6
-2471087.4
-2467029
-2460906.4
-2452824.2
-2442895.1
-2431229.2
-2417944.1
-2403170.1
-2387039.4
-2451571.4
-2449832.1
-2446012.8
-2440243.5
-2432618.2
-2423244.5
-2412222.8
-2399659.3
-2385669.9
-2370378.4
-2430487.6
-2428850.2
-2425255.4
-2419819.9
-2412626.9
-2403779.3
-2393368
-2381488.8
-2368245.8
-2353750.4
-2409665
-2408123.2
-2404739.9
-2399619.9
-2392838.4
-2384489.1
-2374654.8
-2363423.7
-2350889.6
-2337151
-2389091
-2387639.3
-2384455.2
-2379636.8
-2373247.3
-2365366.8
-2356077.1
-2345458.5
-2333595.1
-2320575.5
-2368757.2
-2367390.8
-2364394.8
-2359861.5
-2353840
-2346401.1
-2337624.9
-2327584.5
-2316355.2
-2304017.3
-2348648.1
-2347361.8
-2344542.2
-2340275.7
-2334599.4
-2327577.2
-2319285.7
-2309790.8
-2299160.3
-2287466.3
-2328744.5
-2327533.1
-2324878.6
-2320861.3
-2315508.8
-2308879.7
-2301045.1
-2292063.9
-2281998.3
-2270912.6
-2309025.2
-2307883.8
-2305383.1
-2301598
-2296553.4
-2290298
-2282890.8
-2274391.7
-2264858.1
-2254346.2
-2289472.8
-2288397.2
-2286040.1
-2282472.2
-2277717.7
-2271811.4
-2264806.5
-2256761.6
-2247727.6
-2237755.7
-2270063.7
-2269049.3
-2266826
-2263461.6
-2258977.7
-2253398.1
-2246771.4
-2239152.8
-2230587.8
-2221124.1
-2250771.5
-2249814.2
-2247715.5
-2244540.1
-2240307.7
-2235035.8
-2228765.8
-2221546.2
-2213421.1
-2204433.9
-2231569.8
-2230665.7
-2228683.1
-2225683.7
-2221685.4
-2216702.9
-2210767.2
-2203921.3
-2196208.7
-2187667.5
-2212431.3
-2211576.7
-2209702.3
-2206866.9
-2203086.3
-2198373.3
-2192749
-2186252.3
-2178925.1
-2170801
-2193323.5
-2192514.8
-2190740.7
-2188056.7
-2184477.2
-2180013.4
-2174680.6
-2168511.5
-2161544.4
-2153811.1
-2174210.9
-2173444.7
-2171763.5
-2169219.2
-2165825.5
-2161592.7
-2156533.1
-2150670.6
-2144038.7
-2136668.9
-2155055.3
-2154328.4
-2152733
-2150317.7
-2147096.2
-2143077.1
-2138270.7
-2132691.7
-2126370.9
-2119340.5
-2135814.3
-2135123.5
-2133607.1
-2131310.8
-2128247.6
-2124425.1
-2119851.2
-2114537.3
-2108507.7
-2101791.6
-2116442.3
-2115784.7
-2114341
-2112154.2
-2109236.6
-2105594.8
-2101235
-2096166.8
-2090406.8
-2083980.6
-2096889.5
-2096262.4
-2094885.4
-2092799
-2090015
-2086538.8
-2082375.2
-2077532.6
-2072020.3
-2065861.6
-2077100.1
-2076500.8
-2075184.7
-2073190
-2070527.6
-2067202.2
-2063217.4
-2058580
-2053297.1
-2047386.5
-2057011.6
-2056437.6
-2055176.7
-2053265.2
-2050712.9
-2047524
-2043701.8
-2039251.4
-2034178.8
-2028495.3
-2036560
-2036008.9
-2034798.1
-2032962.1
-2030509.9
-2027445.1
-2023770.2
-2019489.2
-2014606.7
-2009128.9
-2015671.4
-2015140.9
-2013975.2
-2012207
-2009844.7
-2006891.3
-2003348.4
-1999219.3
-1994507.5
-1989216.4
-1994266.7
-1993754.5
-1992629
-1990921.6
-1988639.6
-1985785.5
-1982360.5
-1978367
-1973807.7
-1968685
-1972260.8
-1971765
-1970675.3
-1969021.7
-1966811
-1964045
-1960724.3
-1956851.1
-1952427.2
-1947454
-1949563.2
-1949081.8
-1948023.5
-1946417.4
-1944269.3
-1941580.3
-1938351.4
-1934584
-1930279.1
-1925437.5
-1926077.7
-1925608.8
-1924578
-1923013.3
-1920919.5
-1918297.6
-1915148.6
-1911473.4
-1907272.2
-1902545.2
-1901704.8
-1901246.7
-1900239.7
-1898710.6
-1896663.5
-1894099.4
-1891019.2
-1887423.5
-1883312
-1878684.2
-1876343.2
-1875894.4
-1874907.6
-1873408.5
-1871400.8
-1868886.1
-1865865
-1862337.4
-1858302.8
-1853760.3
-1849891.2
-1849450.1
-1848480
-1847005.8
-1845031.9
-1842559.5
-1839588.8
-1836119.6
-1832150.8
-1827681.3
-1822249.9
-1821815.3
-1820859.3
-1819406.8
-1817462
-1815025.9
-1812098.6
-1808679.4
-1804767.3
-1800360.7
-1793331.5
-1792902.5
-1791959.1
-1790525.6
-1788606.1
-1786201.5
-1783311.7
-1779936.1
-1776073.4
-1771722.1
-1763063.8
-1762639.9
-1761707.5
-1760290.9
-1758393.8
-1756017.2
-1753160.9
-1749824.3
-1746006
-1741705.1
-1731395.1
-1730975.8
-1730053.7
-1728652.7
-1726776.5
-1724426
-1721601.2
-1718301.3
-1714525.1
-1710273.6
-1698302.8
-1697888.2
-1696976.3
-1695590.8
-1693735.5
-1691411.2
-1688618
-1685355.4
-1681622.4
-1677421.8
-1663801.6
-1663392
-1662491
-1661122.2
-1659289.2
-1656993.2
-1654234.3
-1651012.1
-1647326.8
-1643182.7
-1627953.3
-1627549.4
-1626660.9
-1625311.2
-1623504
-1621240.5
-1618521.2
-1615346
-1611716.6
-1607637.3
-1590875.3
-1590478.2
-1589604.8
-1588278
-1586501.6
-1584277.3
-1581605.5
-1578486.7
-1574923.7
-1570920.6
-1552746.9
-1552358.1
-1551503
-1550204.1
-1548465.4
-1546288.5
-1543674.6
-1540624.3
-1537141.2
-1533228.6
-1513812.9
-1513434.1
-1512601.2
-1511336.2
-1509643.1
-1507523.9
-1504979.8
-1502011.9
-1498623.7
-1494818.6
-1474379.8
-1474013.1
-1473206.6
-1471981.9
-1470343
-1468292
-1465830.5
-1462960
-1459683.2
-1456003.3
-1434804.8
-1434452
-1433676.1
-1432497.9
-1430921.5
-1428949.2
-1426582.6
-1423823.5
-1420673.8
-1417136.5
-1395473.8
-1395136.5
-1394394.8
-1393268.5
-1391761.7
-1389876.6
-1387615.2
-1384979.2
-1381970.7
-1378591.8
-1356774.5
-1356453.9
-1355748.9
-1354678.3
-1353246.1
-1351454.6
-1349305.4
-1346800.6
-1343942
-1340731.9
-1319063.7
-1318760.4
-1318093.3
-1317080.3
-1315725.2
-1314029.9
-1311996.2
-1309625.8
-1306920.6
-1303882.5
-1282639.8
-1282353.6
-1281724.3
-1280768.7
-1279490.1
-1277890.4
-1275971.1
-1273733.8
-1271179.9
-1268311.3
-1247723.8
-1247454.2
-1246861.2
-1245960.6
-1244755.4
-1243247.4
-1241437.7
-1239327.6
-1236918.3
-1234211.1
-1214454.8
-1214200.6
-1213641.3
-1212791.9
-1211655.1
-1210232.1
-1208524.1
-1206532
-1204256.5
-1201698.7
-1182897.7
-1182657.3
-1182128.6
-1181325.5
-1180250.4
-1178904.5
-1177288.6
-1175403.3
-1173249.2
-1170826.8
-1153058
-1152830
-1152328.6
-1151566.7
-1150546.8
-1149269.7
-1147736
-1145946.2
-1143900.6
-1141599.4
-1124893.8
-1124676.9
-1124199.6
-1123474.4
-1122503.4
-1121287.3
-1119826.5
-1118121.1
-1116171.1
-1113976.7
-1098335.4
-1098128.1
-1097671.9
-1096978.8
-1096050.6
-1094887.9
-1093490.8
-1091859.4
-1089993.4
-1087892.7
-1073295.1
-1073096.2
-1072658.4
-1071993.2
-1071102.2
-1069986
-1068644.4
-1067077.5
-1065284.8
-1063265.9
-1049677.4
-1049485.7
-1049063.9
-1048422.9
-1047564.3
-1046488.5
-1045195.3
-1043684.5
-1041955.6
-1040008.1
-1027384.9
-1027199.5
-1026791.7
-1026171.8
-1025341.4
-1024300.8
-1023049.7
-1021587.9
-1019914.8
-1018029.6
-1006322.9
-1006143.1
-1005747.4
-1005146
-1004340.2
-1003330.4
-1002116.2
-1000697.3
-999073.03
-997242.62
-986401.42
-986226.44
-985841.43
-985256.21
-984472.13
-983489.37
-982307.67
-980926.55
-979345.33
-977563.22
-967536.02
-967365.33
-966989.77
-966418.88
-965653.97
-964695.19
-963542.25
-962194.63
-960651.64
-958912.43
-949648.57
-949481.7
-949114.54
-948556.42
-947808.61
-946871.21
-945743.93
-944426.24
-942917.41
-941216.6
-932667.03
-932503.6
-932143.98
-931597.33
-930864.86
-929946.68
-928842.49
-927551.73
-926073.68
-924407.5
-916525.24
-916364.91
-916012.13
-915475.85
-914757.29
-913856.53
-912773.26
-911506.93
-910056.84
-908422.14
-901162.52
-901005.02
-900658.47
-900131.67
-899425.81
-898540.96
-897476.82
-896232.85
-894808.35
-893202.48
-886523.33
-886368.44
-886027.63
-885509.55
-884815.37
-883945.18
-882898.67
-881675.3
-880274.41
-878695.16
-872556.86
-872404.38
-872068.89
-871558.89
-870875.55
-870018.94
-868988.78
-867784.55
-866405.59
-864851.09
-859216.62
-859066.4
-858735.87
-858233.42
-857560.19
-856716.28
-855701.4
-854515.05
-853156.59
-851625.24
-846459.9
-846311.8
-845985.92
-845490.56
-844826.84
-843994.86
-842994.34
-841824.81
-840485.64
-838976.09
-834247.84
-834101.73
-833780.26
-833291.59
-832636.85
-831816.14
-830829.21
-829675.58
-828354.68
-826865.77
-822544.47
-822400.26
-822082.96
-821600.65
-820954.44
-820144.44
-819170.4
-818031.88
-816728.31
-815259
-811317.15
-811174.76
-810861.46
-810385.23
-809747.17
-808947.4
-807985.7
-806861.64
-805574.67
-804124.12
-800535.27
-800394.65
-800085.22
-799614.87
-798984.64
-798194.7
-797244.81
-796134.6
-794863.51
-793430.92
-790171.22
-790032.36
-789726.77
-789262.14
-788639.56
-787859.15
-786920.74
-785823.93
-784568.23
-783153.03
-780199.36
-780062.18
-779760.32
-779301.38
-778686.23
-777915.02
-776987.65
-775903.76
-774662.88
-773264.43
-770597.13
-770461.57
-770163.26
-769709.72
-769101.86
-768339.65
-767422.93
-766351.55
-765125.05
-763742.87
-761342.77
-761208.78
-760913.92
-760465.63
-759864.8
-759111.4
-758205.13
-757145.78
-755933.11
-754566.62
-752416.26
-752283.8
-751992.3
-751549.12
-750955.16
-750210.38
-749314.37
-748266.82
-747067.59
-745716.34
-743799.14
-743668.16
-743379.95
-742941.77
-742354.51
-741618.14
-740732.27
-739696.33
-738510.14
-737173.69
-735474.32
-735344.8
-735059.78
-734626.46
-734045.73
-733317.55
-732441.54
-731417.11
-730243.9
-728921.82
-727425.89
-727297.79
-727015.91
-726587.35
-726012.99
-725292.83
-724426.49
-723413.39
-722252.85
-720944.79
-719639.02
-719512.31
-719233.47
-718809.55
-718241.42
-717529.06
-716672.12
-715670.04
-714522.12
-713228.08
-712100.02
-711974.66
-711698.82
-711279.44
-710717.41
-710012.71
-709165
-708173.74
-707038.26
-705757.93
-704796.09
-704672.06
-704399.14
-703984.22
-703428.15
-702730.95
-701892.26
-700911.58
-699788.23
-698521.46
-697715.35
-697592.62
-697322.56
-696911.99
-696361.77
-695671.89
-694842.04
-693871.71
-692760.25
-691506.93
-690846.75
-690725.3
-690458.05
-690051.75
-689507.26
-688824.57
-688003.39
-687043.2
-685943.41
-684703.3
-684179.85
-684059.64
-683795.14
-683393.03
-682854.14
-682178.5
-681365.8
-680415.55
-679327.16
-678099.94
-677704.99
-677586.01
-677324.2
-676926.18
-676392.8
-675724.07
-674919.69
-673979.2
-672902
-671687.45
-671413.17
-671295.39
-671036.23
-670642.24
-670114.26
-669452.31
-668656.1
-667725.17
-666658.96
-665456.85
-665295.83
-665179.24
-664922.67
-664532.63
-664009.95
-663354.64
-662566.44
-661644.9
-660589.46
-659399.5
-659345.07
-659229.63
-658975.61
-658589.43
-658071.93
-657423.14
-656642.79
-655730.45
-654685.57
-653507.56
-653553.4
-653439.09
-653187.57
-652805.19
-652292.79
-651650.4
-650877.76
-649974.46
-648939.95
-647773.66
-647913.83
-647800.63
-647551.55
-647172.9
-646665.5
-646029.38
-645264.31
-644369.88
-643345.56
-642190.78
-642419.73
-642307.62
-642060.94
-641685.94
-641183.43
-640553.46
-639795.79
-638910.02
-637895.64
-636752.11
-637064.86
-636953.82
-636709.49
-636338.06
-635840.35
-635216.4
-634466
-633588.74
-632584.15
-631451.65
-631843.49
-631733.5
-631491.47
-631123.55
-630630.53
-630012.49
-629269.19
-628400.26
-627405.23
-626283.55
-626750.03
-626641.07
-626401.3
-626036.8
-625548.4
-624936.14
-624199.81
-623339.06
-622353.41
-621242.32
-621779.37
-621671.41
-621433.84
-621072.71
-620588.8
-619982.18
-619252.66
-618399.87
-617423.36
-616322.62
-616926.48
-616819.5
-616584.1
-616226.24
-615746.74
-615145.67
-614422.82
-613577.86
-612610.34
-611519.76
-612186.94
-612080.93
-611847.64
-611493.01
-611017.84
-610422.19
-609705.88
-608868.58
-607909.85
-606829.19
-607556.43
-607451.35
-607220.14
-606868.66
-606397.72
-605807.38
-605097.47
-604267.65
-603317.51
-602246.56
-603030.74
-602926.58
-602697.39
-602349
-601882.18
-601297.02
-600593.34
-599770.81
-598829.04
-597767.54
-598605.83
-598502.57
-598275.36
-597929.97
-597467.18
-596887.09
-596189.51
-595374.14
-594440.59
-593388.36
-594278.09
-594175.71
-593950.44
-593608.01
-593149.19
-592574.07
-591882.48
-591074.1
-590148.56
-589105.37
-590044.06
-589942.55
-589719.17
-589379.62
-588924.65
-588354.37
-587668.61
-586867.07
-585949.37
-584915.04
-585900.31
-585799.64
-585578.12
-585241.4
-584790.23
-584224.72
-583544.69
-582749.86
-581839.83
-580814.15
-581843.84
-581743.99
-581524.29
-581190.32
-580742.85
-580181.96
-579507.5
-578719.18
-577816.62
-576799.37
-577871.43
-577772.39
-577554.45
-577223.18
-576779.32
-576222.96
-575553.96
-574772.04
-573876.82
-572867.85
-573980.35
-573882.1
-573665.91
-573337.29
-572896.97
-572345.06
-571681.41
-570905.72
-570017.63
-569016.7
-570167.87
-570070.39
-569855.89
-569529.84
-569092.97
-568545.38
-567886.93
-567117.33
-566236.23
-565243.19
-566431.24
-566334.53
-566121.7
-565798.17
-565364.7
-564821.36
-564168.03
-563404.41
-562530.15
-561544.82
-562768.17
-562672.23
-562461.04
-562139.98
-561709.81
-561170.62
-560522.25
-559764.44
-558896.83
-557918.99
-559176.09
-559080.89
-558871.33
-558552.7
-558125.77
-557590.62
-556947.12
-556195
-555333.91
-554363.42
-555652.87
-555558.4
-555350.44
-555034.2
-554610.44
-554079.27
-553440.55
-552694.01
-551839.3
-550875.99
-552196.58
-552102.82
-551896.41
-551582.47
-551161.8
-550634.49
-550000.41
-549259.29
-548410.78
-547454.46
-548804.88
-548711.81
-548506.9
-548195.26
-547777.61
-547254.09
-546624.55
-545888.74
-545046.31
-544096.86
-545475.98
-545383.58
-545180.16
-544870.78
-544456.11
-543936.3
-543311.22
-542580.6
-541744.09
-540801.28
-542208.3
-542116.54
-541914.54
-541607.31
-541195.5
-540679.26
-540058.45
-539332.82
-538502.02
-537565.64
-538999.55
-538908.41
-538707.78
-538402.63
-537993.57
-537480.78
-536864.11
-536143.33
-535318.07
-534387.94
-535847.81
-535757.27
-535557.97
-535254.84
-534848.47
-534339.04
-533726.42
-533010.37
-532190.53
-531266.51
-532751.19
-532661.23
-532463.22
-532162.05
-531758.32
-531252.17
-530643.5
-529932.05
-529117.5
-528199.44
-529708.33
-529618.95
-529422.2
-529122.97
-528721.84
-528218.94
-527614.16
-526907.27
-526097.94
-525185.77
-526717.8
-526628.97
-526433.45
-526136.12
-525737.54
-525237.81
-524636.85
-523934.41
-523130.14
-522223.66
-523779.23
-523690.95
-523496.65
-523201.16
-522805.06
-522308.42
-521711.15
-521013.01
-520213.66
-519312.72
-520890.83
-520803.07
-520609.91
-520316.19
-519922.46
-519428.78
-518835.07
-518141.09
-517346.52
-516450.95
-518051.07
-517963.82
-517771.78
-517479.77
-517088.35
-516597.55
-516007.32
-515317.41
-514527.5
-513637.19
-515258.35
-515171.58
-514980.62
-514690.26
-514301.07
-513813.08
-513226.22
-512540.26
-511754.88
-510869.68
-512511.3
-512425.01
-512235.1
-511946.34
-511559.33
-511074.08
-510490.51
-509808.41
-509027.45
-508147.25
-509808.68
-509722.85
-509533.96
-509246.77
-508861.88
-508379.31
-507798.97
-507120.65
-506344.02
-505468.72
-507149.56
-507064.19
-506876.31
-506590.67
-506207.87
-505727.95
-505150.8
-504476.19
-503703.8
-502833.26
-504533.41
-504448.48
-504261.58
-503977.43
-503596.63
-503119.23
-502545.09
-501874
-501105.64
-500239.64
-501958.87
-501874.36
-501688.38
-501405.64
-501026.75
-500551.73
-499980.46
-499312.74
-498548.24
-497686.59
-499424.57
-499340.45
-499155.36
-498873.96
-498496.88
-498024.15
-497455.64
-496791.15
-496030.35
-495172.88
-496929.24
-496845.5
-496661.25
-496381.15
-496005.81
-495535.28
-494969.42
-494308.03
-493550.8
-492697.37
-494471.73
-494388.37
-494204.93
-493926.07
-493552.41
-493083.99
-492520.69
-491862.31
-491108.53
-490258.99
-492051
-491967.99
-491785.34
-491507.68
-491135.64
-490669.28
-490108.46
-489452.98
-488702.55
-487856.8
-489666.15
-489583.49
-489401.6
-489125.11
-488754.65
-488290.28
-487731.88
-487079.25
-486332.1
-485490.07
-487316.57
-487234.25
-487053.12
-486777.79
-486408.89
-485946.49
-485390.47
-484740.62
-483996.66
-483158.23
-485001.75
-484919.77
-484739.37
-484465.15
-484097.74
-483637.23
-483083.47
-482436.27
-481695.35
-480860.35
-482720.72
-482639.05
-482459.35
-482186.19
-481820.21
-481361.47
-480809.88
-480165.2
-479427.17
-478595.45
-480472.45
-480391.09
-480212.05
-479939.89
-479575.26
-479118.23
-478568.68
-477926.41
-477191.14
-476362.54
-478255.95
-478174.87
-477996.46
-477725.26
-477361.92
-476906.5
-476358.91
-475718.93
-474986.28
-474160.65
-476070.25
-475989.44
-475811.63
-475541.34
-475179.22
-474725.34
-474179.6
-473541.8
-472811.65
-471988.85
-473914.42
-473833.87
-473656.63
-473387.21
-473026.25
-472573.83
-472029.86
-471394.12
-470666.35
-469846.23
-471787.61
-471707.31
-471530.6
-471262.01
-470902.15
-470451.12
-469908.82
-469275.05
-468549.55
-467732.01
-469689.05
-469608.98
-469432.79
-469164.98
-468806.18
-468356.49
-467815.82
-467183.96
-466460.67
-465645.65
-467618.22
-467538.37
-467362.69
-467095.64
-466737.87
-466289.48
-465750.36
-465120.34
-464399.17
-463586.54
-465574.51
-465494.88
-465319.67
-465053.35
-464696.56
-464249.38
-463711.74
-463083.45
-462364.27
-461553.89
-463557.16
-463477.74
-463302.97
-463037.33
-462681.44
-462235.42
-461699.16
-461072.49
-460355.17
-459546.9
-461565.39
-461486.15
-461311.81
-461046.8
-460691.76
-460246.8
-459711.84
-459086.69
-458371.12
-457564.88
-459598.5
-459519.45
-459345.49
-459081.08
-458726.85
-458282.91
-457749.19
-457125.5
-456411.64
-455607.33
-457655.97
-457577.09
-457403.5
-457139.66
-456786.2
-456343.22
-455810.66
-455188.36
-454476.09
-453673.6
-455737.17
-455658.44
-455485.2
-455221.88
-454869.13
-454427.04
-453895.56
-453274.53
-452563.73
-451762.92
-453841.35
-453762.76
-453589.84
-453327.01
-452974.9
-452533.63
-452003.14
-451383.27
-450673.82
-449874.53
-451967.81
-451889.35
-451716.71
-451454.32
-451102.79
-450662.26
-450132.67
-449513.87
-448805.66
-448007.84
-450115.93
-450037.59
-449865.22
-449603.22
-449252.24
-448812.41
-448283.67
-447665.89
-446958.9
-446162.47
-448285.25
-448207.02
-448034.9
-447773.28
-447422.81
-446983.62
-446455.67
-445838.84
-445132.95
-444337.8
-446475.2
-446397.07
-446225.16
-445963.88
-445613.86
-445175.25
-444648.01
-444032.02
-443327.11
-442533.09
-444685.11
-444607.06
-444435.34
-444174.34
-443824.72
-443386.6
-442859.97
-442244.7
-441540.64
-440747.61
-442914.27
-442836.3
-442664.73
-442403.98
-442054.68
-441616.98
-441090.86
-440476.22
-439772.92
-438980.81
-441162.13
-441084.21
-440912.78
-440652.23
-440303.22
-439865.9
-439340.26
-438726.22
-438023.65
-437232.43
-439428.3
-439350.44
-439179.13
-438918.77
-438570.01
-438133.04
-437607.83
-436994.33
-436292.42
-435501.99
-437712.32
-437634.51
-437463.29
-437203.09
-436854.55
-436417.85
-435893
-435279.94
-434578.57
-433788.79
-436013.59
-435935.8
-435764.65
-435504.56
-435156.17
-434719.68
-434195.09
-433582.36
-432881.4
-432092.11
-434331.43
-434253.66
-434082.55
-433822.51
-433474.21
-433037.84
-432513.41
-431900.89
-431200.21
-430411.32
-432665.23
-432587.46
-432416.36
-432156.34
-431808.07
-431371.76
-430847.44
-430235.11
-429534.72
-428746.25
-431014.64
-430936.87
-430765.77
-430505.75
-430157.51
-429721.26
-429197.04
-428584.88
-427884.74
-427096.64
-429379.38
-429301.6
-429130.48
-428870.45
-428522.21
-428085.96
-427561.79
-426949.72
-426249.75
-425461.89
-427758.97
-427681.17
-427510.02
-427249.94
-426901.63
-426465.33
-425941.13
-425329.05
-424629.12
-423841.36
-426152.78
-426074.95
-425903.73
-425643.55
-425295.12
-424858.69
-424334.34
-423722.13
-423022.09
-422234.27
-424560.13
-424482.25
-424310.92
-424050.58
-423701.95
-423265.28
-422740.68
-422128.22
-421427.99
-420640.11
-422980.53
-422902.6
-422731.14
-422470.62
-422121.78
-421684.87
-421160.06
-420547.43
-419847.1
-419059.21
-421413.53
-421335.52
-421163.92
-420903.2
-420554.1
-420116.91
-419591.8
-418978.9
-418278.34
-417490.29
-419860.07
-419782.02
-419610.34
-419349.48
-419000.22
-418562.87
-418037.6
-417424.55
-416723.9
-415935.82
-418318.81
-418240.69
-418068.86
-417807.78
-417458.25
-417020.57
-416494.94
-415881.54
-415180.53
-414392.13
-416789.26
-416711.06
-416539.04
-416277.71
-415927.83
-415489.76
-414963.68
-414349.78
-413648.28
-412859.38
-415270.5
-415192.2
-415019.96
-414758.28
-414407.97
-413969.37
-413442.69
-412828.17
-412126.06
-411336.67
-413761.76
-413683.34
-413510.84
-413248.78
-412898
-412458.85
-411931.6
-411316.51
-410613.85
-409823.97
-412262.73
-412184.19
-412011.44
-411749.04
-411397.8
-410958.12
-410430.29
-409814.58
-409111.29
-408320.8
-410773.09
-410694.43
-410521.42
-410258.62
-409906.87
-409466.59
-408938.08
-408321.65
-407617.67
-406826.59
-409292.13
-409213.33
-409040.02
-408776.79
-408424.51
-407983.61
-407454.46
-406837.4
-406132.83
-405341.2
-407819.43
-407740.51
-407566.94
-407303.33
-406950.57
-406509.12
-405979.35
-405361.64
-404656.41
-403864.16
-406354.83
-406275.79
-406101.95
-405837.93
-405484.64
-405042.56
-404512.08
-403893.6
-403187.61
-402394.67
-404897.46
-404818.27
-404644.1
-404379.61
-404025.72
-403582.95
-403051.75
-402432.55
-401725.88
-400932.31
-403446.33
-403367
-403192.54
-402927.63
-402573.21
-402129.82
-401597.93
-400978.04
-400270.72
-399476.6
-402001.08
-401921.62
-401746.88
-401481.55
-401126.62
-400682.66
-400150.16
-399529.66
-398821.75
-398027.1
-400561.19
-400481.61
-400306.61
-400040.9
-399685.49
-399240.97
-398707.9
-398086.85
-397378.45
-396583.41
-399125.95
-399046.25
-398871.02
-398605
-398249.19
-397804.24
-397270.7
-396649.18
-395940.35
-395144.99
-397695.03
-397615.23
-397439.79
-397173.46
-396817.3
-396371.96
-395838.04
-395216.19
-394507.1
-393711.54
-396267.69
-396187.83
-396012.25
-395745.73
-395389.33
-394943.71
-394409.51
-393787.4
-393078.15
-392282.56
-394843.66
-394763.74
-394588.05
-394321.37
-393964.78
-393519
-392984.69
-392362.52
-391653.25
-390857.73
-393422.54
-393342.6
-393166.85
-392900.1
-392543.43
-392097.57
-391563.22
-390941.09
-390231.98
-389436.73
-392003.88
-391923.93
-391748.17
-391481.43
-391124.8
-390679.04
-390144.84
-389522.91
-388814.07
-388019.22
-390587.65
-390507.72
-390332.01