/*--------------------------------*- C++ -*----------------------------------*\
  =========                 |
  \\      /  F ield         | OpenFOAM: The Open Source CFD Toolbox
   \\    /   O peration     | Website:  https://openfoam.org
    \\  /    A nd           | Version:  7
     \\/     M anipulation  |
\*---------------------------------------------------------------------------*/
FoamFile
{
    version     2.0;
    format      ascii;
    class       volScalarField;
    location    "80000";
    object      G;
}
// * * * * * * * * * * * * * * * * * * * * * * * * * * * * * * * * * * * * * //

dimensions      [1 0 -3 0 0 0 0];

internalField   nonuniform List<scalar> 
87000
(
33799.138
33807.295
33825.369
33853.197
33891.176
33939.961
34000.471
34073.951
34162.112
34268.162
33642.029
33647.843
33660.638
33680.088
33706.13
33738.705
33777.701
33822.902
33873.979
33930.466
33307.396
33310.777
33318.172
33329.29
33343.94
33361.883
33382.802
33406.285
33431.842
33458.76
32868.005
32869.723
32873.466
32879.049
32886.327
32895.117
32905.189
32916.265
32928.039
32940.087
32374.114
32374.854
32376.458
32378.83
32381.883
32385.505
32389.555
32393.862
32398.248
32402.525
31855.581
31855.773
31856.18
31856.762
31857.467
31858.228
31858.957
31859.551
31859.891
31859.96
31329.303
31329.19
31328.932
31328.518
31327.918
31327.092
31325.977
31324.511
31322.632
31320.404
30804.796
30804.51
30803.875
30802.894
30801.548
30799.806
30797.628
30794.975
30791.827
30788.266
30287.528
30287.142
30286.292
30284.986
30283.212
30280.945
30278.158
30274.832
30270.972
30266.683
29780.684
29780.242
29779.268
29777.777
29775.76
29773.198
29770.072
29766.368
29762.12
29757.433
29286.141
29285.667
29284.623
29283.026
29280.869
29278.139
29274.822
29270.916
29266.464
29261.566
28805.034
28804.544
28803.463
28801.808
28799.577
28796.759
28793.347
28789.349
28784.812
28779.824
28338.035
28337.536
28336.436
28334.755
28332.491
28329.635
28326.197
28322.179
28317.63
28312.628
27885.538
27885.038
27883.935
27882.252
27879.987
27877.136
27873.712
27869.721
27865.21
27860.251
27447.711
27447.215
27446.12
27444.451
27442.208
27439.389
27436.001
27432.065
27427.625
27422.74
27024.562
27024.074
27022.993
27021.349
27019.14
27016.369
27013.044
27009.188
27004.843
27000.062
26616.013
26615.534
26614.476
26612.864
26610.702
26607.993
26604.748
26600.989
26596.756
26592.094
26221.911
26221.443
26220.411
26218.841
26216.734
26214.099
26210.946
26207.298
26203.19
26198.661
25842.051
25841.595
25840.592
25839.065
25837.021
25834.466
25831.413
25827.883
25823.908
25819.52
25476.173
25475.731
25474.757
25473.276
25471.294
25468.83
25465.884
25462.478
25458.641
25454.402
25124
25123.573
25122.631
25121.201
25119.289
25116.914
25114.076
25110.796
25107.1
25103.013
24785.206
24784.795
24783.889
24782.514
24780.678
24778.39
24775.661
24772.509
24768.959
24765.029
24459.42
24459.024
24458.153
24456.833
24455.071
24452.876
24450.26
24447.239
24443.836
24440.066
24146.262
24145.882
24145.047
24143.782
24142.094
24139.993
24137.488
24134.597
24131.337
24127.724
23845.352
23844.988
23844.189
23842.978
23841.363
23839.354
23836.96
23834.196
23831.078
23827.619
23556.301
23555.953
23555.189
23554.032
23552.491
23550.573
23548.288
23545.649
23542.67
23539.362
23278.715
23278.383
23277.655
23276.552
23275.082
23273.253
23271.075
23268.559
23265.717
23262.559
23012.198
23011.881
23011.188
23010.137
23008.737
23006.996
23004.922
23002.526
22999.818
22996.807
22756.352
22756.051
22755.39
22754.391
22753.06
22751.404
22749.431
22747.152
22744.574
22741.705
22510.784
22510.498
22509.871
22508.921
22507.656
22506.083
22504.209
22502.042
22499.589
22496.858
22275.099
22274.827
22274.232
22273.331
22272.131
22270.638
22268.859
22266.8
22264.469
22261.871
22048.909
22048.652
22048.088
22047.233
22046.095
22044.679
22042.992
22041.038
22038.825
22036.357
21831.837
21831.594
21831.059
21830.249
21829.171
21827.83
21826.231
21824.38
21822.28
21819.937
21623.507
21623.277
21622.771
21622.006
21620.986
21619.717
21618.203
21616.448
21614.458
21612.235
21423.549
21423.331
21422.853
21422.129
21421.165
21419.965
21418.532
21416.871
21414.986
21412.88
21231.601
21231.395
21230.944
21230.259
21229.348
21228.214
21226.859
21225.288
21223.505
21221.511
21047.314
21047.12
21046.694
21046.048
21045.188
21044.116
21042.836
21041.352
21039.665
21037.777
20870.343
20870.161
20869.759
20869.15
20868.338
20867.327
20866.119
20864.716
20863.121
20861.335
20700.355
20700.182
20699.803
20699.23
20698.464
20697.51
20696.37
20695.045
20693.539
20691.852
20537.027
20536.865
20536.508
20535.967
20535.245
20534.346
20533.27
20532.02
20530.599
20529.005
20380.048
20379.896
20379.56
20379.05
20378.371
20377.523
20376.509
20375.331
20373.989
20372.484
20229.113
20228.969
20228.653
20228.173
20227.533
20226.735
20225.78
20224.669
20223.404
20221.985
20083.925
20083.79
20083.493
20083.042
20082.439
20081.688
20080.789
20079.743
20078.551
20077.214
19944.206
19944.079
19943.799
19943.375
19942.809
19942.102
19941.256
19940.272
19939.149
19937.888
19809.679
19809.56
19809.298
19808.9
19808.369
19807.703
19806.906
19805.978
19804.921
19803.733
19680.072
19679.961
19679.715
19679.341
19678.842
19678.215
19677.465
19676.593
19675.598
19674.481
19555.132
19555.027
19554.796
19554.444
19553.974
19553.387
19552.684
19551.865
19550.93
19549.879
19434.623
19434.524
19434.307
19433.978
19433.537
19432.985
19432.325
19431.556
19430.678
19429.689
19318.31
19318.217
19318.014
19317.705
19317.291
19316.774
19316.154
19315.432
19314.606
19313.678
19205.967
19205.881
19205.69
19205.4
19205.012
19204.526
19203.945
19203.266
19202.491
19201.618
19097.377
19097.296
19097.118
19096.847
19096.484
19096.029
19095.481
19094.843
19094.115
19093.294
18992.328
18992.253
18992.086
18991.832
18991.492
18991.065
18990.55
18989.951
18989.266
18988.496
18890.62
18890.55
18890.393
18890.154
18889.834
18889.434
18888.952
18888.391
18887.749
18887.026
18792.071
18792.005
18791.858
18791.634
18791.335
18790.959
18790.507
18789.98
18789.378
18788.699
18696.501
18696.439
18696.302
18696.093
18695.813
18695.461
18695.037
18694.541
18693.974
18693.335
18603.735
18603.677
18603.549
18603.353
18603.09
18602.76
18602.363
18601.895
18601.361
18600.76
18513.608
18513.554
18513.433
18513.249
18513.003
18512.693
18512.319
18511.881
18511.379
18510.813
18425.968
18425.917
18425.804
18425.632
18425.4
18425.109
18424.758
18424.347
18423.872
18423.339
18340.67
18340.622
18340.516
18340.354
18340.136
18339.861
18339.53
18339.142
18338.696
18338.194
18257.579
18257.534
18257.435
18257.282
18257.077
18256.819
18256.508
18256.142
18255.722
18255.246
18176.565
18176.523
18176.429
18176.286
18176.093
18175.85
18175.556
18175.212
18174.816
18174.365
18097.505
18097.466
18097.377
18097.241
18097.059
18096.829
18096.551
18096.224
18095.848
18095.422
18020.286
18020.249
18020.165
18020.037
18019.864
18019.646
18019.382
18019.073
18018.716
18018.311
17944.802
17944.767
17944.688
17944.567
17944.404
17944.198
17943.948
17943.655
17943.317
17942.933
17870.956
17870.923
17870.848
17870.733
17870.578
17870.382
17870.145
17869.866
17869.544
17869.179
17798.654
17798.623
17798.551
17798.442
17798.294
17798.108
17797.882
17797.616
17797.308
17796.96
17727.81
17727.78
17727.711
17727.606
17727.464
17727.285
17727.068
17726.812
17726.516
17726.18
17658.35
17658.321
17658.256
17658.154
17658.017
17657.844
17657.634
17657.387
17657.101
17656.776
17590.214
17590.185
17590.123
17590.025
17589.892
17589.725
17589.522
17589.282
17589.005
17588.689
17523.344
17523.317
17523.256
17523.162
17523.034
17522.871
17522.674
17522.441
17522.172
17521.865
17457.691
17457.665
17457.606
17457.514
17457.389
17457.231
17457.039
17456.812
17456.55
17456.252
17393.205
17393.178
17393.121
17393.032
17392.91
17392.755
17392.568
17392.347
17392.091
17391.8
17329.838
17329.812
17329.757
17329.669
17329.55
17329.399
17329.216
17328.999
17328.749
17328.464
17267.55
17267.525
17267.471
17267.385
17267.268
17267.12
17266.94
17266.728
17266.482
17266.203
17206.301
17206.277
17206.223
17206.139
17206.025
17205.879
17205.702
17205.493
17205.252
17204.977
17146.055
17146.031
17145.978
17145.896
17145.783
17145.639
17145.465
17145.259
17145.022
17144.751
17086.776
17086.753
17086.701
17086.62
17086.509
17086.368
17086.196
17085.993
17085.758
17085.491
17028.436
17028.412
17028.361
17028.282
17028.173
17028.033
17027.864
17027.663
17027.431
17027.167
16971.008
16970.984
16970.934
16970.856
16970.748
16970.61
16970.442
16970.243
16970.013
16969.751
16914.466
16914.443
16914.393
16914.315
16914.208
16914.071
16913.904
16913.707
16913.478
16913.219
16858.787
16858.764
16858.713
16858.637
16858.53
16858.394
16858.228
16858.031
16857.804
16857.545
16803.946
16803.923
16803.873
16803.796
16803.69
16803.555
16803.389
16803.193
16802.967
16802.709
16749.923
16749.9
16749.849
16749.773
16749.668
16749.534
16749.369
16749.174
16748.948
16748.691
16696.701
16696.679
16696.628
16696.552
16696.448
16696.314
16696.15
16695.956
16695.73
16695.473
16644.266
16644.244
16644.193
16644.117
16644.014
16643.88
16643.716
16643.522
16643.296
16643.04
16592.601
16592.578
16592.528
16592.452
16592.348
16592.215
16592.051
16591.857
16591.631
16591.374
16541.691
16541.668
16541.617
16541.541
16541.437
16541.304
16541.141
16540.946
16540.721
16540.463
16491.523
16491.5
16491.449
16491.372
16491.267
16491.135
16490.972
16490.777
16490.552
16490.294
16442.086
16442.063
16442.012
16441.934
16441.83
16441.697
16441.534
16441.34
16441.114
16440.856
16393.37
16393.347
16393.295
16393.217
16393.112
16392.979
16392.816
16392.622
16392.396
16392.138
16345.363
16345.339
16345.288
16345.209
16345.104
16344.97
16344.807
16344.613
16344.386
16344.128
16298.056
16298.032
16297.98
16297.901
16297.795
16297.661
16297.498
16297.303
16297.076
16296.817
16251.439
16251.415
16251.363
16251.283
16251.177
16251.042
16250.879
16250.684
16250.457
16250.197
16205.503
16205.479
16205.427
16205.347
16205.24
16205.105
16204.941
16204.746
16204.518
16204.258
16160.244
16160.221
16160.168
16160.088
16159.98
16159.844
16159.679
16159.484
16159.255
16158.994
16115.654
16115.63
16115.577
16115.496
16115.387
16115.251
16115.085
16114.889
16114.66
16114.398
16071.726
16071.701
16071.648
16071.566
16071.457
16071.319
16071.153
16070.955
16070.726
16070.463
16028.454
16028.429
16028.376
16028.293
16028.183
16028.045
16027.877
16027.678
16027.448
16027.184
15985.834
15985.809
15985.754
15985.672
15985.56
15985.421
15985.252
15985.052
15984.821
15984.555
15943.86
15943.835
15943.78
15943.696
15943.584
15943.443
15943.273
15943.072
15942.838
15942.572
15902.528
15902.503
15902.447
15902.363
15902.25
15902.108
15901.936
15901.733
15901.498
15901.23
15861.834
15861.808
15861.752
15861.668
15861.554
15861.41
15861.237
15861.032
15860.796
15860.526
15821.773
15821.748
15821.691
15821.606
15821.491
15821.346
15821.171
15820.965
15820.726
15820.454
15782.343
15782.317
15782.26
15782.174
15782.058
15781.912
15781.735
15781.527
15781.286
15781.012
15743.54
15743.514
15743.456
15743.369
15743.252
15743.105
15742.926
15742.716
15742.473
15742.195
15705.358
15705.332
15705.274
15705.186
15705.068
15704.919
15704.739
15704.527
15704.281
15704.001
15667.795
15667.769
15667.71
15667.621
15667.502
15667.352
15667.169
15666.954
15666.706
15666.422
15630.845
15630.818
15630.759
15630.67
15630.549
15630.396
15630.212
15629.994
15629.742
15629.455
15594.503
15594.476
15594.416
15594.325
15594.203
15594.048
15593.86
15593.64
15593.384
15593.094
15558.762
15558.735
15558.674
15558.581
15558.456
15558.299
15558.109
15557.885
15557.626
15557.331
15523.613
15523.585
15523.523
15523.429
15523.302
15523.142
15522.949
15522.722
15522.459
15522.16
15489.047
15489.018
15488.955
15488.86
15488.731
15488.568
15488.372
15488.141
15487.875
15487.571
15455.054
15455.025
15454.961
15454.864
15454.733
15454.568
15454.369
15454.134
15453.863
15453.556
15421.624
15421.595
15421.53
15421.431
15421.298
15421.13
15420.928
15420.689
15420.415
15420.102
15388.745
15388.715
15388.649
15388.548
15388.413
15388.243
15388.037
15387.796
15387.517
15387.2
15356.402
15356.371
15356.304
15356.202
15356.065
15355.893
15355.684
15355.438
15355.156
15354.835
15324.58
15324.549
15324.481
15324.378
15324.239
15324.064
15323.852
15323.604
15323.317
15322.993
15293.261
15293.229
15293.161
15293.056
15292.915
15292.738
15292.524
15292.273
15291.984
15291.656
15262.423
15262.391
15262.322
15262.216
15262.074
15261.896
15261.68
15261.427
15261.135
15260.805
15232.043
15232.012
15231.942
15231.835
15231.693
15231.513
15231.296
15231.041
15230.748
15230.417
15202.095
15202.063
15201.993
15201.887
15201.743
15201.563
15201.346
15201.091
15200.797
15200.465
15172.549
15172.517
15172.447
15172.34
15172.197
15172.017
15171.8
15171.545
15171.252
15170.921
15143.372
15143.34
15143.27
15143.164
15143.021
15142.841
15142.625
15142.371
15142.08
15141.75
15114.533
15114.502
15114.432
15114.326
15114.184
15114.005
15113.789
15113.537
15113.247
15112.919
15086.003
15085.971
15085.902
15085.796
15085.654
15085.476
15085.262
15085.01
15084.722
15084.396
15057.754
15057.723
15057.653
15057.548
15057.406
15057.229
15057.015
15056.765
15056.478
15056.153
15029.765
15029.734
15029.665
15029.559
15029.418
15029.241
15029.028
15028.778
15028.492
15028.169
15002.02
15001.989
15001.92
15001.814
15001.673
15001.496
15001.283
15001.034
15000.748
15000.426
14974.509
14974.478
14974.408
14974.302
14974.161
14973.983
14973.77
14973.521
14973.235
14972.913
14947.222
14947.19
14947.12
14947.014
14946.872
14946.694
14946.48
14946.23
14945.944
14945.621
14920.144
14920.113
14920.043
14919.937
14919.795
14919.616
14919.402
14919.152
14918.866
14918.543
14893.269
14893.238
14893.168
14893.062
14892.92
14892.742
14892.528
14892.278
14891.992
14891.67
14866.592
14866.56
14866.49
14866.385
14866.243
14866.065
14865.851
14865.602
14865.316
14864.995
14840.107
14840.076
14840.006
14839.901
14839.759
14839.582
14839.368
14839.119
14838.834
14838.514
14813.813
14813.781
14813.712
14813.607
14813.465
14813.288
14813.076
14812.827
14812.543
14812.223
14787.705
14787.674
14787.605
14787.499
14787.358
14787.182
14786.97
14786.722
14786.439
14786.12
14761.782
14761.75
14761.681
14761.576
14761.436
14761.26
14761.049
14760.802
14760.519
14760.202
14736.039
14736.008
14735.939
14735.835
14735.695
14735.519
14735.309
14735.063
14734.782
14734.465
14710.477
14710.445
14710.377
14710.273
14710.133
14709.958
14709.749
14709.504
14709.223
14708.908
14685.091
14685.06
14684.992
14684.888
14684.749
14684.575
14684.366
14684.122
14683.843
14683.529
14659.881
14659.85
14659.782
14659.679
14659.54
14659.367
14659.159
14658.916
14658.638
14658.325
14634.846
14634.815
14634.747
14634.644
14634.506
14634.334
14634.126
14633.884
14633.607
14633.296
14609.985
14609.954
14609.886
14609.784
14609.646
14609.474
14609.267
14609.026
14608.75
14608.44
14585.296
14585.266
14585.198
14585.096
14584.959
14584.787
14584.581
14584.341
14584.066
14583.757
14560.781
14560.751
14560.684
14560.582
14560.445
14560.274
14560.069
14559.829
14559.555
14559.247
14536.44
14536.41
14536.343
14536.241
14536.105
14535.934
14535.73
14535.491
14535.218
14534.911
14512.273
14512.243
14512.176
14512.075
14511.939
14511.769
14511.565
14511.327
14511.055
14510.75
14488.282
14488.252
14488.185
14488.084
14487.949
14487.78
14487.577
14487.34
14487.069
14486.764
14464.469
14464.439
14464.372
14464.272
14464.137
14463.968
14463.766
14463.529
14463.259
14462.956
14440.836
14440.806
14440.739
14440.639
14440.504
14440.336
14440.134
14439.899
14439.629
14439.327
14417.385
14417.355
14417.288
14417.188
14417.053
14416.885
14416.684
14416.449
14416.181
14415.879
14394.114
14394.084
14394.018
14393.918
14393.784
14393.617
14393.416
14393.182
14392.914
14392.614
14371.023
14370.993
14370.928
14370.829
14370.696
14370.53
14370.33
14370.097
14369.831
14369.532
14348.114
14348.084
14348.02
14347.922
14347.791
14347.626
14347.428
14347.196
14346.932
14346.634
14325.389
14325.36
14325.297
14325.2
14325.07
14324.906
14324.71
14324.481
14324.218
14323.923
14302.851
14302.823
14302.76
14302.664
14302.535
14302.374
14302.179
14301.952
14301.691
14301.398
14280.502
14280.473
14280.411
14280.316
14280.189
14280.029
14279.836
14279.611
14279.353
14279.062
14258.342
14258.314
14258.252
14258.158
14258.032
14257.874
14257.683
14257.46
14257.204
14256.916
14236.373
14236.345
14236.284
14236.191
14236.066
14235.909
14235.72
14235.5
14235.246
14234.96
14214.597
14214.569
14214.509
14214.416
14214.292
14214.137
14213.95
14213.731
14213.48
14213.196
14193.014
14192.987
14192.926
14192.835
14192.712
14192.558
14192.373
14192.156
14191.907
14191.626
14171.626
14171.598
14171.539
14171.448
14171.326
14171.174
14170.99
14170.775
14170.528
14170.249
14150.433
14150.406
14150.347
14150.257
14150.136
14149.985
14149.803
14149.589
14149.344
14149.067
14129.437
14129.411
14129.352
14129.263
14129.143
14128.993
14128.812
14128.6
14128.357
14128.082
14108.64
14108.613
14108.555
14108.466
14108.347
14108.198
14108.018
14107.808
14107.567
14107.294
14088.041
14088.015
14087.957
14087.869
14087.751
14087.603
14087.424
14087.215
14086.975
14086.704
14067.642
14067.616
14067.559
14067.471
14067.354
14067.207
14067.03
14066.822
14066.584
14066.314
14047.445
14047.42
14047.362
14047.275
14047.159
14047.012
14046.836
14046.63
14046.393
14046.125
14027.451
14027.425
14027.369
14027.282
14027.166
14027.021
14026.845
14026.64
14026.404
14026.138
14007.661
14007.635
14007.579
14007.493
14007.377
14007.233
14007.058
14006.854
14006.619
14006.354
13988.076
13988.051
13987.995
13987.909
13987.794
13987.65
13987.477
13987.273
13987.04
13986.776
13968.699
13968.674
13968.618
13968.532
13968.418
13968.275
13968.102
13967.899
13967.667
13967.404
13949.531
13949.506
13949.45
13949.365
13949.251
13949.108
13948.936
13948.734
13948.503
13948.241
13930.574
13930.549
13930.493
13930.409
13930.295
13930.153
13929.981
13929.78
13929.55
13929.289
13911.831
13911.805
13911.75
13911.666
13911.553
13911.411
13911.24
13911.039
13910.809
13910.549
13893.302
13893.277
13893.222
13893.138
13893.025
13892.884
13892.713
13892.513
13892.284
13892.025
13874.992
13874.967
13874.912
13874.828
13874.716
13874.575
13874.405
13874.205
13873.977
13873.718
13856.903
13856.878
13856.823
13856.739
13856.627
13856.486
13856.317
13856.118
13855.889
13855.631
13839.036
13839.011
13838.956
13838.873
13838.761
13838.62
13838.451
13838.252
13838.024
13837.766
13821.395
13821.37
13821.315
13821.232
13821.12
13820.979
13820.81
13820.612
13820.384
13820.127
13803.981
13803.956
13803.901
13803.818
13803.706
13803.566
13803.397
13803.199
13802.971
13802.714
13786.798
13786.773
13786.718
13786.635
13786.523
13786.383
13786.214
13786.016
13785.789
13785.532
13769.847
13769.822
13769.768
13769.685
13769.573
13769.433
13769.264
13769.066
13768.839
13768.582
13753.133
13753.108
13753.053
13752.97
13752.858
13752.718
13752.549
13752.351
13752.124
13751.867
13736.656
13736.631
13736.576
13736.493
13736.381
13736.241
13736.072
13735.874
13735.647
13735.39
13720.42
13720.395
13720.341
13720.257
13720.145
13720.005
13719.836
13719.638
13719.41
13719.153
13704.428
13704.403
13704.348
13704.264
13704.153
13704.012
13703.843
13703.644
13703.417
13703.159
13688.681
13688.656
13688.601
13688.517
13688.405
13688.265
13688.095
13687.896
13687.668
13687.41
13673.182
13673.158
13673.103
13673.019
13672.907
13672.766
13672.596
13672.397
13672.168
13671.91
13657.935
13657.91
13657.855
13657.771
13657.659
13657.517
13657.347
13657.148
13656.919
13656.66
13642.941
13642.916
13642.861
13642.777
13642.665
13642.523
13642.353
13642.153
13641.923
13641.663
13628.205
13628.18
13628.125
13628.04
13627.927
13627.785
13627.614
13627.414
13627.183
13626.923
13613.727
13613.702
13613.646
13613.562
13613.449
13613.306
13613.135
13612.934
13612.703
13612.441
13599.511
13599.486
13599.431
13599.346
13599.233
13599.09
13598.917
13598.715
13598.483
13598.221
13585.56
13585.535
13585.479
13585.395
13585.28
13585.137
13584.964
13584.761
13584.528
13584.264
13571.875
13571.85
13571.794
13571.709
13571.594
13571.45
13571.276
13571.072
13570.838
13570.573
13558.46
13558.434
13558.378
13558.293
13558.178
13558.033
13557.858
13557.653
13557.418
13557.152
13545.318
13545.293
13545.236
13545.15
13545.035
13544.889
13544.714
13544.508
13544.272
13544.005
13532.455
13532.429
13532.372
13532.286
13532.17
13532.024
13531.848
13531.641
13531.404
13531.136
13519.874
13519.848
13519.791
13519.704
13519.588
13519.441
13519.264
13519.056
13518.818
13518.548
13507.578
13507.552
13507.494
13507.407
13507.29
13507.142
13506.963
13506.754
13506.514
13506.243
13495.567
13495.541
13495.484
13495.395
13495.277
13495.128
13494.949
13494.738
13494.496
13494.223
13483.847
13483.82
13483.762
13483.673
13483.554
13483.404
13483.223
13483.011
13482.768
13482.493
13472.419
13472.393
13472.334
13472.245
13472.125
13471.974
13471.792
13471.578
13471.334
13471.057
13461.291
13461.264
13461.205
13461.115
13460.994
13460.842
13460.659
13460.444
13460.198
13459.919
13450.465
13450.438
13450.378
13450.288
13450.166
13450.013
13449.829
13449.613
13449.365
13449.084
13439.947
13439.92
13439.86
13439.768
13439.646
13439.492
13439.306
13439.089
13438.839
13438.556
13429.741
13429.713
13429.652
13429.56
13429.437
13429.281
13429.094
13428.874
13428.622
13428.337
13419.847
13419.819
13419.758
13419.665
13419.54
13419.384
13419.195
13418.973
13418.719
13418.432
13410.271
13410.243
13410.182
13410.088
13409.962
13409.804
13409.613
13409.39
13409.134
13408.844
13401.019
13400.99
13400.928
13400.833
13400.706
13400.547
13400.355
13400.129
13399.871
13399.579
13392.094
13392.065
13392.003
13391.907
13391.779
13391.618
13391.424
13391.197
13390.937
13390.643
13383.503
13383.474
13383.411
13383.314
13383.185
13383.023
13382.828
13382.599
13382.336
13382.04
13375.252
13375.223
13375.159
13375.061
13374.931
13374.768
13374.571
13374.34
13374.075
13373.776
13367.346
13367.317
13367.252
13367.154
13367.022
13366.857
13366.659
13366.426
13366.159
13365.857
13359.79
13359.76
13359.695
13359.596
13359.463
13359.297
13359.096
13358.861
13358.591
13358.287
13352.589
13352.559
13352.493
13352.393
13352.259
13352.091
13351.888
13351.651
13351.379
13351.072
13345.749
13345.719
13345.652
13345.551
13345.416
13345.246
13345.041
13344.802
13344.528
13344.217
13339.277
13339.246
13339.179
13339.077
13338.941
13338.769
13338.563
13338.321
13338.044
13337.732
13333.18
13333.149
13333.082
13332.979
13332.841
13332.668
13332.46
13332.216
13331.936
13331.621
13327.466
13327.435
13327.367
13327.263
13327.124
13326.949
13326.739
13326.493
13326.211
13325.893
13322.143
13322.112
13322.043
13321.938
13321.798
13321.622
13321.41
13321.162
13320.877
13320.556
13317.22
13317.188
13317.119
13317.013
13316.871
13316.694
13316.48
13316.23
13315.943
13315.619
13312.704
13312.672
13312.602
13312.495
13312.352
13312.173
13311.957
13311.705
13311.415
13311.088
13308.605
13308.573
13308.502
13308.394
13308.25
13308.069
13307.851
13307.596
13307.304
13306.974
13304.931
13304.899
13304.827
13304.719
13304.573
13304.39
13304.17
13303.913
13303.618
13303.285
13301.694
13301.661
13301.589
13301.479
13301.332
13301.148
13300.926
13300.666
13300.369
13300.033
13298.903
13298.87
13298.797
13298.687
13298.539
13298.352
13298.129
13297.867
13297.566
13297.227
13296.571
13296.538
13296.464
13296.353
13296.203
13296.015
13295.789
13295.525
13295.222
13294.879
13294.709
13294.676
13294.601
13294.489
13294.338
13294.148
13293.92
13293.653
13293.347
13293.002
13293.331
13293.297
13293.222
13293.108
13292.955
13292.764
13292.534
13292.265
13291.956
13291.607
13292.449
13292.415
13292.339
13292.224
13292.07
13291.877
13291.645
13291.373
13291.061
13290.71
13292.079
13292.044
13291.968
13291.852
13291.697
13291.502
13291.268
13290.993
13290.679
13290.324
13292.237
13292.202
13292.125
13292.008
13291.851
13291.654
13291.417
13291.141
13290.823
13290.465
13292.938
13292.903
13292.825
13292.707
13292.549
13292.35
13292.111
13291.832
13291.511
13291.15
13294.202
13294.166
13294.088
13293.969
13293.809
13293.608
13293.367
13293.085
13292.761
13292.396
13296.047
13296.011
13295.932
13295.811
13295.65
13295.448
13295.204
13294.919
13294.593
13294.224
13298.494
13298.457
13298.377
13298.256
13298.093
13297.889
13297.643
13297.355
13297.025
13296.653
13301.565
13301.528
13301.447
13301.325
13301.16
13300.954
13300.706
13300.415
13300.082
13299.706
13305.284
13305.247
13305.165
13305.041
13304.875
13304.667
13304.416
13304.123
13303.786
13303.407
13309.676
13309.639
13309.556
13309.431
13309.263
13309.053
13308.8
13308.503
13308.164
13307.78
13314.769
13314.731
13314.648
13314.522
13314.352
13314.14
13313.884
13313.585
13313.242
13312.854
13320.593
13320.555
13320.471
13320.343
13320.172
13319.957
13319.699
13319.397
13319.05
13318.659
13327.181
13327.142
13327.057
13326.928
13326.755
13326.538
13326.277
13325.972
13325.621
13325.226
13334.566
13334.527
13334.442
13334.311
13334.136
13333.917
13333.653
13333.344
13332.99
13332.59
13342.788
13342.748
13342.661
13342.53
13342.353
13342.131
13341.864
13341.552
13341.194
13340.79
13351.885
13351.845
13351.757
13351.624
13351.445
13351.221
13350.951
13350.635
13350.273
13349.865
13361.903
13361.863
13361.774
13361.639
13361.459
13361.232
13360.959
13360.639
13360.273
13359.86
13372.891
13372.85
13372.761
13372.624
13372.441
13372.212
13371.936
13371.612
13371.242
13370.824
13384.902
13384.861
13384.77
13384.632
13384.447
13384.214
13383.935
13383.608
13383.233
13382.809
13397.993
13397.951
13397.859
13397.719
13397.532
13397.296
13397.013
13396.682
13396.302
13395.873
13412.226
13412.184
13412.09
13411.949
13411.759
13411.52
13411.234
13410.898
13410.513
13410.079
13427.67
13427.627
13427.533
13427.389
13427.196
13426.955
13426.664
13426.324
13425.934
13425.493
13444.4
13444.356
13444.26
13444.115
13443.919
13443.674
13443.38
13443.035
13442.639
13442.193
13462.498
13462.454
13462.357
13462.209
13462.011
13461.763
13461.464
13461.114
13460.713
13460.26
13482.059
13482.014
13481.915
13481.765
13481.564
13481.312
13481.008
13480.653
13480.246
13479.786
13503.18
13503.135
13503.034
13502.882
13502.678
13502.421
13502.113
13501.752
13501.338
13500.871
13525.973
13525.927
13525.825
13525.67
13525.463
13525.202
13524.889
13524.522
13524.101
13523.626
13550.562
13550.515
13550.411
13550.254
13550.043
13549.778
13549.459
13549.085
13548.657
13548.174
13577.082
13577.034
13576.928
13576.768
13576.553
13576.283
13575.958
13575.578
13575.142
13574.65
13605.682
13605.633
13605.526
13605.362
13605.143
13604.868
13604.537
13604.149
13603.705
13603.203
13636.531
13636.482
13636.372
13636.205
13635.982
13635.701
13635.364
13634.968
13634.515
13634.004
13669.82
13669.769
13669.657
13669.487
13669.259
13668.972
13668.627
13668.224
13667.761
13667.239
13705.756
13705.704
13705.59
13705.416
13705.183
13704.89
13704.537
13704.125
13703.652
13703.118
13744.576
13744.523
13744.406
13744.228
13743.989
13743.69
13743.329
13742.906
13742.422
13741.876
13786.545
13786.491
13786.371
13786.188
13785.943
13785.636
13785.266
13784.833
13784.337
13783.776
13831.96
13831.904
13831.781
13831.593
13831.342
13831.027
13830.647
13830.202
13829.693
13829.117
13881.159
13881.101
13880.974
13880.781
13880.523
13880.198
13879.808
13879.35
13878.826
13878.234
13934.521
13934.462
13934.331
13934.132
13933.866
13933.531
13933.129
13932.657
13932.116
13931.506
13992.48
13992.418
13992.283
13992.078
13991.802
13991.457
13991.04
13990.553
13989.995
13989.364
14055.525
14055.462
14055.322
14055.109
14054.824
14054.465
14054.034
14053.529
14052.95
14052.297
14124.217
14124.151
14124.006
14123.784
14123.488
14123.116
14122.667
14122.143
14121.541
14120.862
14199.196
14199.127
14198.976
14198.745
14198.435
14198.047
14197.579
14197.032
14196.404
14195.696
14281.194
14281.122
14280.963
14280.722
14280.398
14279.991
14279.502
14278.929
14278.272
14277.531
14371.058
14370.982
14370.815
14370.561
14370.221
14369.793
14369.279
14368.677
14367.987
14367.208
14469.762
14469.682
14469.506
14469.238
14468.878
14468.427
14467.884
14467.247
14466.518
14465.694
14578.43
14578.345
14578.158
14577.873
14577.49
14577.011
14576.433
14575.757
14574.983
14574.108
14698.362
14698.271
14698.071
14697.766
14697.358
14696.847
14696.231
14695.51
14694.683
14693.751
14831.09
14830.992
14830.778
14830.451
14830.014
14829.465
14828.804
14828.031
14827.144
14826.144
14978.409
14978.304
14978.072
14977.72
14977.247
14976.654
14975.94
14975.104
14974.146
14973.065
15142.414
15142.299
15142.047
15141.663
15141.149
15140.503
15139.726
15138.818
15137.776
15136.601
15325.582
15325.457
15325.18
15324.76
15324.197
15323.491
15322.64
15321.646
15320.506
15319.22
15530.872
15530.733
15530.429
15529.966
15529.345
15528.566
15527.629
15526.532
15525.275
15523.857
15761.809
15761.655
15761.316
15760.801
15760.11
15759.244
15758.201
15756.981
15755.583
15754.006
16022.611
16022.438
16022.058
16021.48
16020.705
16019.733
16018.563
16017.195
16015.628
16013.86
16318.385
16318.189
16317.759
16317.105
16316.229
16315.129
16313.807
16312.26
16310.488
16308.489
16655.356
16655.133
16654.642
16653.895
16652.895
16651.64
16650.13
16648.364
16646.342
16644.061
17041.156
17040.899
17040.333
17039.471
17038.317
17036.869
17035.127
17033.091
17030.758
17028.128
17485.22
17484.919
17484.259
17483.254
17481.908
17480.219
17478.189
17475.814
17473.096
17470.031
17999.347
17998.993
17998.213
17997.028
17995.44
17993.449
17991.054
17988.255
17985.049
17981.437
18598.475
18598.052
18597.121
18595.705
18593.808
18591.43
18588.57
18585.227
18581.4
18577.087
19301.751
19301.238
19300.109
19298.394
19296.095
19293.213
19289.748
19285.699
19281.064
19275.841
20134.094
20133.462
20132.072
20129.96
20127.129
20123.581
20119.316
20114.333
20108.63
20102.206
21128.551
21127.759
21126.015
21123.366
21119.817
21115.369
21110.024
21103.779
21096.635
21088.59
22329.875
22328.861
22326.628
22323.235
22318.691
22312.997
22306.156
22298.167
22289.029
22278.742
23800.187
23798.855
23795.925
23791.471
23785.508
23778.039
23769.065
23758.59
23746.613
23733.135