/*--------------------------------*- C++ -*----------------------------------*\
  =========                 |
  \\      /  F ield         | OpenFOAM: The Open Source CFD Toolbox
   \\    /   O peration     | Website:  https://openfoam.org
    \\  /    A nd           | Version:  7
     \\/     M anipulation  |
\*---------------------------------------------------------------------------*/
FoamFile
{
    version     2.0;
    format      ascii;
    class       volScalarField;
    location    "80000";
    object      qr;
}
// * * * * * * * * * * * * * * * * * * * * * * * * * * * * * * * * * * * * * //

dimensions      [1 0 -3 0 0 0 0];

internalField   uniform 0;

boundaryField
{
    fuelinlet
    {
        type            calculated;
        value           nonuniform List<scalar> 10(15982.893 15986.966 15995.99 16009.885 16028.848 16053.206 16083.418 16120.103 16164.087 16216.565);
    }
    airinlet
    {
        type            calculated;
        value           nonuniform List<scalar> 
170
(
11981.767
11777.113
11606.611
11455.341
11318.576
11193.221
11077.1
10968.635
10866.647
10770.236
10678.694
10591.459
10508.069
10428.145
10351.368
10277.467
10206.211
10137.398
10070.852
10006.419
9943.9598
9883.3532
9824.4889
9767.2677
9711.5998
9657.4035
9604.6041
9553.1332
9502.9279
9453.9303
9406.0866
9359.347
9313.6655
9268.9988
9225.3067
9182.5515
9140.6981
9099.7133
9059.5658
9020.2265
8981.6675
8943.8627
8906.7874
8870.4182
8834.7328
8799.7102
8765.3303
8731.5739
8698.423
8665.8603
8633.8692
8602.434
8571.5396
8541.1715
8511.3161
8481.96
8453.0907
8424.696
8396.7642
8369.2842
8342.2451
8315.6368
8289.4492
8263.6728
8238.2984
8213.317
8188.7203
8164.4999
8140.6479
8117.1566
8094.0186
8071.2268
8048.7743
8026.6544
8004.8607
7983.3869
7962.227
7941.3752
7920.8259
7900.5735
7880.6128
7860.9387
7841.5462
7822.4304
7803.5869
7785.0109
7766.6982
7748.6445
7730.8457
7713.2978
7695.997
7678.9394
7662.1215
7645.5397
7629.1905
7613.0707
7597.177
7581.5063
7566.0555
7550.8217
7535.802
7520.9937
7506.394
7492.0003
7477.8101
7463.821
7450.0304
7436.4361
7423.0359
7409.8276
7396.809
7383.9781
7371.3329
7358.8714
7346.5919
7334.4925
7322.5715
7310.8271
7299.2577
7287.8618
7276.6378
7265.5842
7254.6996
7243.9827
7233.4321
7223.0465
7212.8247
7202.7655
7192.8679
7183.1306
7173.5527
7164.1332
7154.8711
7145.7655
7136.8155
7128.0204
7119.3793
7110.8916
7102.5564
7094.3733
7086.3415
7078.4605
7070.7299
7063.149
7055.7175
7048.4349
7041.301
7034.3154
7027.4778
7020.788
7014.2458
7007.8511
7001.6037
6995.5037
6989.5509
6983.7455
6978.0874
6972.5769
6967.214
6961.999
6956.9321
6952.0137
6947.244
6942.6235
6938.1526
6933.8319
6929.6618
6925.6429
6921.776
6918.0617
)
;
    }
    outlet
    {
        type            calculated;
        value           nonuniform List<scalar> 
290
(
-1920425.5
-1918140.5
-1913339.3
-1906151
-1896659.6
-1884962.8
-1871176.9
-1855434
-1837881
-1818663.1
-1798497.5
-1777620
-1755632.5
-1732480
-1707901.9
-1682589.9
-1656686.8
-1630382.7
-1602623.5
-1573915
-1544466.8
-1513124
-1481174.6
-1448694.8
-1415766.8
-1382497.5
-1348066.7
-1313019.7
-1278632.2
-1244344.3
-1209870.7
-1174790.6
-1140036.9
-1105677.3
-1071200.3
-1036588.8
-1002530.1
-969139.01
-934725.56
-900986.65
-867873.42
-835410.2
-803615.36
-772591.02
-740786.35
-709505.55
-679075.14
-649472.11
-620703.94
-592467.03
-563916.87
-536356.35
-509666.56
-483843.52
-458875.29
-433605.57
-409424.3
-386192.35
-363866.93
-342344.2
-320883.41
-300513.1
-281091.44
-262566.29
-244664.83
-227224.64
-210805.57
-195275.14
-180587.69
-166364.24
-152860.58
-140262.14
-128445.97
-117382.4
-106730.06
-96840.951
-87708.185
-79231.228
-71373.546
-63973.073
-57188.365
-50971.932
-45192.019
-39944.483
-35133.05
-30727.086
-26773.527
-23202.793
-19975.167
-17062.734
-14421.16
-12022.299
-9904.5605
-8019.2314
-6336.7046
-4837.0364
-3501.3679
-2313.1762
-1239.2559
-300.94626
534.36414
1269.2348
1915.3372
2483.6855
2983.8392
3424.2267
3812.3846
4154.1234
4455.0254
4722.0103
4956.4964
5159.6369
5336.6302
5491.0918
5625.9974
5743.8798
5846.9024
5936.9207
6015.6624
6084.3506
6145.3962
6198.9932
6245.2298
6284.9785
6318.9981
6347.9495
6372.4099
6392.8851
6409.819
6423.6035
6434.5901
6440.0576
6437.9417
6435.2397
6431.9612
6428.1281
6423.7677
6418.9088
6413.5799
6407.808
6401.6193
6395.0384
6388.0893
6380.7956
6373.1466
6365.0594
6356.8043
6348.382
6339.5981
6330.8107
6324.5154
6317.4947
6309.8313
6301.6012
6292.8725
6283.7056
6274.1548
6264.2682
6254.0633
6243.6331
6232.9837
6222.1465
6211.1495
6200.018
6188.775
6177.441
6166.0346
6154.5727
6143.0704
6131.5416
6119.9987
6108.453
6096.9146
6085.393
6073.8965
6062.4326
6051.0083
6039.6297
6028.3026
6017.032
6005.8226
5994.6784
5983.6033
5972.6006
5961.6734
5950.8243
5940.0558
5929.37
5918.7689
5908.2542
5897.8274
5887.4897
5877.2424
5867.0863
5857.0224
5847.0512
5837.1735
5827.3895
5817.6998
5808.1044
5798.6037
5789.1976
5779.8862
5770.6693
5761.5469
5752.5188
5743.5847
5734.7443
5725.9973
5717.3432
5708.7818
5700.3124
5691.935
5683.6487
5675.4528
5667.3469
5659.3304
5651.4026
5643.5631
5635.8111
5628.146
5620.5672
5613.074
5605.6659
5598.342
5591.1018
5583.9446
5576.8697
5569.8766
5562.9645
5556.1327
5549.3808
5542.7079
5536.1136
5529.5971
5523.1579
5516.7954
5510.5089
5504.298
5498.162
5492.1004
5486.1126
5480.1981
5474.3564
5468.5871
5462.8895
5457.2633
5451.7079
5446.223
5440.808
5435.4627
5430.1865
5424.9792
5419.8402
5414.7693
5409.7662
5404.8305
5399.9619
5395.16
5390.4248
5385.7557
5381.1528
5376.6156
5372.144
5367.7378
5363.3968
5359.1208
5354.9098
5350.7636
5346.682
5342.665
5338.7124
5334.8243
5331.0007
5327.2413
5323.5464
5319.9158
5316.3496
5312.8479
5309.4107
5306.0381
5302.7303
5299.4873
5296.3092
5293.1964
5290.1489
5287.167
5284.2509
5281.4009
5278.6172
)
;
    }
    axis
    {
        type            empty;
    }
    leftside
    {
        type            calculated;
        value           nonuniform List<scalar> 
300
(
6918.4982
6922.7052
6926.702
6930.4861
6934.0553
6937.4073
6940.5403
6943.4521
6946.141
6948.6052
6950.8431
6952.8532
6954.6341
6956.1845
6957.5033
6958.5895
6959.4422
6960.0606
6960.4442
6960.5924
6960.5049
6960.1815
6959.622
6958.8264
6957.7951
6956.5282
6955.0262
6953.2896
6951.3192
6949.1158
6946.6804
6944.0139
6941.1177
6937.993
6934.6412
6931.064
6927.263
6923.2399
6918.9967
6914.5353
6909.8579
6904.9666
6899.8638
6894.5517
6889.0329
6883.3099
6877.3853
6871.2619
6864.9424
6858.4296
6851.7266
6844.8362
6837.7615
6830.5055
6823.0715
6815.4626
6807.682
6799.733
6791.6189
6783.343
6774.9087
6766.3193
6757.5784
6748.6893
6739.6554
6730.4802
6721.1673
6711.7199
6702.1418
6692.4362
6682.6067
6672.6568
6662.59
6652.4096
6642.1193
6631.7223
6621.2221
6610.6222
6599.9259
6589.1365
6578.2576
6567.2923
6556.2439
6545.1158
6533.9113
6522.6334
6511.2855
6499.8706
6488.392
6476.8527
6465.2557
6453.6042
6441.9011
6430.1494
6418.352
6406.5118
6394.6316
6382.7144
6370.7628
6358.7796
6346.7676
6334.7294
6322.6676
6310.5848
6298.4836
6286.3666
6274.2362
6262.0948
6249.9448
6237.7887
6225.6288
6213.4674
6201.3066
6189.1489
6176.9963
6164.851
6152.7151
6140.5907
6128.48
6116.3848
6104.3072
6092.2491
6080.2125
6068.1992
6056.2112
6044.2501
6032.3179
6020.4164
6008.5472
5996.712
5984.9126
5973.1507
5961.4278
5949.7456
5938.1057
5926.5097
5914.959
5903.4552
5891.9999
5880.5945
5869.2404
5857.9392
5846.6922
5835.5009
5824.3666
5813.2908
5802.2748
5791.32
5780.4277
5769.5992
5758.8359
5748.1391
5737.51
5726.95
5716.4603
5706.0423
5695.6971
5685.4261
5675.2305
5665.1116
5655.0705
5645.1086
5635.2271
5625.4273
5615.7103
5606.0774
5596.5299
5587.069
5577.6958
5568.4118
5559.2181
5550.1159
5541.1065
5532.1912
5523.3712
5514.6477
5506.0221
5497.4955
5489.0693
5480.7448
5472.5232
5464.4059
5456.394
5448.489
5440.6921
5433.0047
5425.4281
5417.9636
5410.6125
5403.3763
5396.2563
5389.2538
5382.3702
5375.607
5368.9654
5362.447
5356.053
5349.785
5343.6444
5337.6326
5331.751
5326.0011
5320.3843
5314.9022
5309.5561
5304.3476
5299.2781
5294.3492
5289.5622
5284.9187
5280.4202
5276.0682
5271.8641
5267.8095
5263.9058
5260.1545
5256.5571
5253.115
5249.8297
5246.7026
5243.7351
5240.9287
5238.2846
5235.8042
5233.4889
5231.34
5229.3585
5227.5458
5225.903
5224.4312
5223.1314
5222.0045
5221.0515
5220.2731
5219.67
5219.2429
5218.9921
5218.9181
5219.021
5219.301
5219.758
5220.3916
5221.2014
5222.1868
5223.3468
5224.6802
5226.1857
5227.8614
5229.7055
5231.7153
5233.8883
5236.2212
5238.7104
5241.3519
5244.1411
5247.0729
5250.1415
5253.3408
5256.6638
5260.1027
5263.6492
5267.2942
5271.0274
5274.8382
5278.7145
5282.6435
5286.6113
5290.6031
5294.6026
5298.5926
5302.5547
5306.4691
5310.3149
5314.0697
5317.71
5321.2108
5324.5459
5327.6879
5330.6078
5333.2758
5335.6607
5337.7302
5339.4513
5340.7899
5341.7113
5342.1803
5342.1614
5341.619
5340.5176
5338.8219
5336.4977
5333.5114
5329.8308
5325.4251
5320.2657
5314.3259
5307.5817
5300.0118
5291.5979
5282.3251
)
;
    }
    bluffbody
    {
        type            calculated;
        value           nonuniform List<scalar> 
110
(
15895.594
6675.2351
-165407.63
-351679.63
-355927.12
-342997.88
-343278.93
-337199.71
-333238.42
-333146.32
-334835.53
-335711.7
-336252.07
-336634.77
-336935.66
-337191.19
-337420.52
-337634.31
-337838.91
-338038.33
-338235.24
-338431.41
-338628.15
-338826.36
-339026.75
-339229.84
-339436.03
-339645.66
-339858.99
-340076.25
-340297.6
-340523.12
-340758.81
-341002.14
-341248.1
-341493.42
-341739.55
-341987.32
-342237.16
-342489.32
-342753.86
-343024.07
-343296.9
-343572.35
-343850.36
-344130.85
-344413.76
-344698.98
-344986.41
-345275.93
-345567.41
-345860.71
-346155.7
-346452.22
-346750.13
-347049.28
-347349.5
-347650.63
-347952.52
-348254.99
-348557.9
-348861.07
-349164.34
-349467.56
-349770.56
-350073.2
-350375.32
-350681.54
-350996.06
-351309.55
-351621.9
-351933
-352242.75
-352551.08
-352857.94
-353163.28
-353467.1
-353769.4
-354070.23
-354369.65
-354667.78
-354964.78
-355260.93
-355556.92
-355853.43
-356150.57
-356448.55
-356747.85
-357049.08
-357353.01
-357660.51
-357972.67
-358290.87
-358616.87
-358953.19
-359303.77
-359676.04
-360077.73
-360537.29
-361060.78
-361679.32
-362454.76
-363520.44
-365243.42
-371731.12
-398809.01
-436012.66
-530294.88
-974825.09
-1222092.1
)
;
    }
    front
    {
        type            wedge;
    }
    back
    {
        type            wedge;
    }
}


// ************************************************************************* //
