/*--------------------------------*- C++ -*----------------------------------*\
  =========                 |
  \\      /  F ield         | OpenFOAM: The Open Source CFD Toolbox
   \\    /   O peration     | Website:  https://openfoam.org
    \\  /    A nd           | Version:  7
     \\/     M anipulation  |
\*---------------------------------------------------------------------------*/
FoamFile
{
    version     2.0;
    format      ascii;
    class       volScalarField;
    location    "80000";
    object      T;
}
// * * * * * * * * * * * * * * * * * * * * * * * * * * * * * * * * * * * * * //

dimensions      [0 0 0 1 0 0 0];

internalField   nonuniform List<scalar> 
87000
(
298.00309
298.00348
298.00447
298.00655
298.01107
298.0224
298.05949
298.233
300.46188
344.85518
298.02007
298.02201
298.02939
298.04518
298.08
298.16539
298.40162
299.44328
305.89184
368.12354
298.06366
298.07042
298.09458
298.14571
298.2538
298.49122
299.13399
301.85076
313.93964
386.92156
298.15029
298.16864
298.22554
298.34045
298.56426
299.08265
300.60418
305.51026
323.64392
402.42175
298.29817
298.33875
298.44483
298.6437
299.07199
300.03539
302.71318
309.46455
333.9193
413.92911
298.52872
298.59939
298.76512
299.1061
299.76794
301.48935
305.49089
314.84047
343.9522
422.20789
298.86425
298.96466
299.21045
299.72629
300.8304
303.32825
308.81136
320.75881
353.3542
428.55524
299.31723
299.43747
299.80727
300.48835
302.22671
305.56441
312.55937
326.98643
362.03037
433.77399
299.89992
300.05947
300.54552
301.60155
303.88499
308.21205
315.58995
333.30647
369.95571
438.21632
300.61815
300.83423
301.41176
303.00074
305.83515
311.17587
319.90235
339.58288
377.16008
441.96301
301.47064
301.75617
302.52639
304.58844
308.05383
314.34208
324.42874
345.74703
383.772
445.31522
302.51861
302.82159
303.99332
306.40641
310.56269
317.78229
329.10626
351.75113
389.87633
448.43434
303.75259
304.0187
305.65101
308.45869
313.33239
321.41463
333.89406
357.61118
395.58647
451.47982
305.1622
305.3543
307.49075
310.73752
316.30748
323.64875
338.72822
363.29084
400.94162
454.39277
306.73081
307.12436
309.52221
313.23012
319.42454
327.52076
343.57224
368.75984
405.96018
457.15339
308.45654
309.16103
311.77513
315.96195
322.71615
331.52437
348.43165
374.06764
410.71505
459.8189
310.34446
311.45655
314.23027
318.90425
326.21063
335.64101
353.27282
379.22043
415.31307
462.41715
312.38694
313.83487
316.89963
322.04999
329.85432
339.85695
358.1035
384.23675
419.70982
465.00892
314.60671
316.44035
319.75758
325.36642
333.63631
344.16167
362.92229
389.13652
423.93639
467.63841
316.99545
319.21896
322.79739
328.80405
337.54745
348.55986
367.72915
393.9557
428.05495
470.27599
319.55393
322.20413
326.07781
332.41489
339.0847
352.99993
372.5221
398.67943
432.13656
472.89969
322.26703
325.40527
329.55762
336.17381
343.12749
357.47587
377.26098
403.29658
436.07176
475.47576
325.48541
328.8232
333.23069
340.0966
347.2862
362.00619
381.96999
407.82986
439.89882
478.03157
328.97221
332.43726
337.09286
344.19701
351.5382
366.56827
386.65718
412.32414
443.65292
480.58358
332.69392
336.2564
341.14159
348.44951
355.89706
371.18298
391.32742
416.75338
447.41615
483.20961
336.64946
340.2801
345.37361
352.83232
360.34907
375.8371
395.99312
421.1094
451.13294
485.85386
340.83486
344.5056
349.79486
357.36722
364.88642
380.53126
400.64952
425.40152
454.79988
488.50566
345.24513
348.938
354.37307
362.02507
369.51083
385.26463
405.3008
429.73593
458.42467
491.17051
349.8776
353.55075
359.1132
366.83434
374.22321
390.03508
409.96966
434.03224
462.03706
493.85007
354.73381
358.37044
363.97832
371.7623
379.01531
394.84416
414.64345
438.29012
465.69117
496.54413
359.82367
363.33645
369.0089
376.82723
383.883
399.69075
419.29158
442.51831
469.3335
499.28065
365.04933
368.49092
374.19193
382.01909
388.82542
404.57364
423.92323
446.81585
472.96408
502.0873
370.41288
373.80837
379.5328
387.34101
393.84313
409.52192
428.6461
451.08653
476.58274
504.92163
375.94224
379.28989
385.02453
392.78686
398.9318
414.5042
433.35476
455.3341
480.24585
507.79406
381.55022
384.92291
390.65955
398.35154
404.08584
419.49153
438.05088
459.5815
483.94974
510.71949
387.2124
390.69631
396.43572
404.03647
409.33597
424.52511
442.78862
463.92033
487.65331
513.67345
393.02659
396.60779
402.3511
409.83729
414.63203
429.63651
447.57827
468.24729
491.36301
516.6728
399.06028
402.66128
408.39736
415.77842
419.95385
434.75386
452.36749
472.56566
495.08521
519.72958
405.30911
408.85287
414.58672
421.8137
425.38062
439.89443
457.15349
476.90015
498.88623
522.83158
411.69912
415.21254
420.92545
427.91335
430.86257
445.1447
462.04727
481.32716
502.70498
525.99189
418.22007
421.72991
427.3414
434.17292
436.36084
450.39829
466.94389
485.76147
506.56449
529.20214
424.80837
428.32337
433.88814
440.51539
441.96502
455.65322
471.8394
490.19672
510.45658
532.44285
431.46901
435.06421
440.55746
446.90706
447.61699
461.03156
476.79259
494.65275
514.38867
535.741
438.25996
441.91957
447.18996
453.47327
453.27226
466.41347
481.80556
499.17057
518.36581
539.08894
445.07312
448.76413
453.95176
460.08228
459.015
471.74817
486.77099
503.66985
522.3252
542.46255
451.95832
455.72647
460.74408
466.67093
475.23421
477.25037
491.74839
508.23151
526.35402
545.90233
458.91219
462.71155
467.56108
473.44181
481.73336
482.81568
496.89137
512.87532
530.44513
549.41324
465.88294
469.75707
474.54506
480.36146
488.38341
488.36683
502.0572
517.57419
534.6156
552.99613
473.00733
476.91801
481.53825
487.38431
495.08138
493.96918
507.2646
522.30596
538.83127
556.64217
480.1301
484.07916
488.57606
494.52613
501.78905
499.59777
512.49752
527.07719
543.09526
560.32133
487.21903
491.3319
495.70581
501.67771
508.59811
505.26773
517.71319
531.83234
547.34408
564.03601
494.01425
498.59828
502.78772
508.8733
515.35701
524.17724
523.06307
536.6461
551.65682
567.80246
500.7734
505.83218
509.9139
516.09143
522.187
530.77952
528.43662
541.57081
556.06318
571.66066
507.59837
513.16003
517.0879
523.37148
529.09815
537.45849
533.83466
546.50782
560.50091
575.57899
514.40892
520.4767
524.2954
530.4639
536.15058
544.1566
539.24387
551.44579
564.93761
579.50321
521.15121
527.76331
531.51687
537.45402
543.34046
550.79193
559.95975
556.4785
569.43122
583.49343
527.88148
535.04554
538.8862
544.46043
550.52452
557.50525
566.41882
561.54199
573.9795
587.51055
534.59325
542.34928
546.26722
551.46795
557.73857
564.21098
572.78546
582.55574
578.66831
591.62055
541.28032
549.629
553.66265
558.49725
564.93317
570.94846
579.2333
588.72529
583.37606
595.80117
547.96224
556.92796
560.95378
565.5164
572.15556
577.98057
585.71962
594.90526
588.07536
600.00535
554.61034
564.2086
568.15056
572.55046
578.9728
585.02751
592.19847
601.0432
610.91606
604.30797
561.19359
571.48177
575.33358
579.54061
585.71961
592.0504
598.66407
607.18104
616.64632
627.04937
567.71242
578.68518
582.48665
586.5214
592.44903
599.05452
605.37436
613.3334
622.47259
632.48599
574.19038
585.54886
589.62308
593.57511
599.1666
606.03721
612.15878
619.45832
628.26227
637.8993
580.5933
592.37987
596.7223
600.76696
605.87178
612.50622
618.89491
625.71268
634.08741
643.36608
586.91788
599.16551
603.73857
607.8954
612.51876
618.8621
625.6098
632.18564
639.82686
648.77158
593.15053
605.86573
610.59778
614.77463
619.09417
625.16827
632.21289
638.58898
645.72983
654.09768
599.33925
612.54235
617.41849
621.50298
625.64817
631.41593
638.18195
644.91764
651.79946
659.42532
605.4624
619.02376
624.19256
628.21096
632.35992
637.67445
644.1021
651.21787
657.84611
665.14091
611.56403
624.08624
630.89748
634.86603
639.14388
643.88055
650.05457
657.01149
663.85814
670.91144
617.68652
629.21212
637.60127
641.47875
645.78227
650.10256
655.97017
662.65065
669.85191
676.63608
624.30466
634.36514
644.14366
648.01633
652.16785
656.34606
661.91426
668.27508
675.34835
682.36883
630.88989
639.58554
650.27122
654.40781
658.52937
662.85296
667.8239
673.93415
680.6762
688.04372
637.38688
644.81206
656.39404
660.81926
664.85906
669.3092
673.75747
679.56375
686.04858
693.07238
643.8451
650.07546
662.49214
667.17264
671.1834
675.52001
679.75809
685.2362
691.39445
698.13776
650.24175
655.36675
668.60956
673.52862
677.46138
681.60438
686.01814
690.86792
696.7792
703.23128
656.58212
660.66699
674.68129
679.84489
683.60429
687.6826
692.21502
696.52628
702.17515
708.34829
662.89013
666.00063
679.23488
685.9702
689.6863
693.73191
698.12667
702.51755
707.58431
713.48575
669.12591
671.30027
683.4672
691.67258
695.77244
699.78201
703.96718
708.52486
713.00475
718.64347
675.32682
676.63134
687.81027
697.40059
701.84995
705.74462
709.80401
714.35561
718.77369
723.82398
681.48722
682.04498
692.2478
703.1422
707.91817
711.60652
715.64259
719.98005
724.57485
729.08845
687.60985
688.19698
696.78062
708.89845
713.97773
717.4716
721.48277
725.61426
730.21418
734.70937
693.69858
694.30531
701.40062
714.14218
719.40374
723.34216
727.21502
731.26119
735.64739
740.33271
699.75632
700.37457
706.08594
717.76307
724.86659
729.22018
732.89329
736.92312
741.11104
745.7154
705.78549
706.40815
710.84418
721.55059
730.3717
735.10801
738.59244
742.55819
746.60155
750.9955
711.79093
712.41249
715.6923
725.51258
735.92033
740.59833
744.3154
748.07753
752.12264
756.31518
717.77881
718.39487
720.63249
729.6421
741.41567
745.88311
750.06633
753.64291
757.6479
761.68423
723.75593
724.36303
725.66326
733.914
744.72216
751.23629
755.8497
759.25126
763.05756
767.10733
729.72799
730.32312
731.5923
738.33101
748.26221
756.66425
761.14265
764.906
768.525
772.52513
735.70593
736.2849
737.52126
742.90561
752.04038
762.16835
766.36798
770.61388
774.0627
777.87712
741.69718
742.26096
743.45947
747.64393
756.04175
766.33297
771.69234
776.18532
779.67398
783.31021
747.71123
748.259
749.41799
752.53866
760.25647
769.7565
777.12732
781.35912
785.3621
788.831
753.75885
754.29
755.41192
757.59392
764.69638
773.48114
782.67566
786.66505
791.12339
794.45931
759.85325
760.3677
761.45299
763.09603
769.37662
777.5003
787.0573
792.10983
796.33157
800.19408
766.00896
766.5069
767.55647
769.14424
774.29001
781.8014
790.68257
797.70626
801.70777
806.04682
772.24244
772.72436
773.7394
775.27382
779.44277
786.40363
794.67841
803.46434
807.26042
811.46247
778.57245
779.03907
780.02126
781.50528
784.85679
791.32288
799.03492
807.88205
813.0061
817.01267
785.01978
785.47196
786.42318
787.86002
790.53798
796.55982
803.7575
812.05571
818.9593
822.78526
791.60841
792.04717
792.96967
794.36303
796.50614
802.13298
808.87069
816.67821
825.137
828.79761
798.36645
798.79281
799.68945
801.04365
802.8588
808.07178
814.4004
821.75358
830.05247
835.07685
805.32518
805.74067
806.61445
807.93427
809.70316
814.39203
820.35611
827.29871
835.17028
841.64264
812.51937
812.92539
813.77909
815.06866
816.79703
821.11888
826.76511
833.34848
840.84579
848.52454
819.99072
820.38884
821.22581
822.4903
824.18526
828.30081
833.67277
839.94357
847.10348
855.09023
827.78513
828.17694
829.00054
830.24499
831.9135
835.97698
841.11405
847.11354
853.97258
861.65006
835.95418
836.34131
837.15494
838.38456
840.10003
844.19776
849.13545
854.90167
861.50178
868.91348
844.55576
844.9399
845.74711
846.9675
849.0657
853.0267
857.79087
863.35965
869.74076
876.92496
853.6538
854.03669
854.84114
856.06063
858.67862
862.51931
867.13861
872.54264
878.74095
885.73542
863.32467
863.71
864.5198
866.01586
869.00017
872.74035
877.24048
882.50902
888.55701
895.4063
873.65187
874.03965
874.99561
877.1787
880.09782
883.75566
888.15918
893.31904
899.2643
905.9813
884.91613
885.60519
887.02811
889.17179
892.03706
895.62897
899.96798
905.05541
910.90308
917.50917
897.86478
898.54461
899.95056
902.06845
904.90038
908.45176
912.73101
917.74881
923.51803
930.03785
911.78689
912.45882
913.84726
915.93947
918.73769
922.2481
926.47845
931.44676
937.17159
943.62761
926.69093
927.35569
928.73009
930.80584
933.58646
937.07458
941.27841
946.20863
951.87605
957.91675
942.64529
943.30597
944.67256
946.73236
949.4876
952.94376
957.10873
962.00535
967.63225
972.4267
959.61634
960.27278
961.63126
963.6789
966.41767
969.85284
973.99248
978.84517
984.40148
987.91389
977.59935
978.2482
979.5912
981.61591
984.32574
987.73446
991.83994
996.64718
1001.5095
1004.4333
996.53843
997.18156
998.51326
1000.5202
1003.2033
1006.5664
1010.6147
1015.3472
1019.0698
1022.0007
1016.2116
1016.8446
1018.1557
1020.1312
1022.7715
1026.0794
1030.0603
1034.7063
1037.5848
1040.5271
1036.4832
1037.1025
1038.3855
1040.3187
1042.9015
1046.1354
1050.0227
1054.3946
1057.0105
1059.9533
1057.1205
1057.7221
1058.9683
1060.8452
1063.3516
1066.4882
1070.256
1074.6319
1077.2358
1080.1643
1077.8476
1078.427
1079.6271
1081.4342
1083.8464
1086.8634
1090.4858
1094.7091
1098.1017
1100.997
1098.3649
1098.9167
1100.0595
1101.7799
1104.0759
1106.9472
1110.3921
1114.4095
1118.9955
1122.1699
1118.4179
1118.9408
1120.0239
1121.6543
1123.8295
1126.5479
1129.8079
1133.6081
1137.9464
1142.8204
1137.773
1138.2623
1139.2755
1140.81
1142.8571
1145.4151
1148.4822
1152.0566
1156.1363
1160.7188
1156.2782
1156.7364
1157.6857
1159.1146
1161.0208
1163.4136
1166.2891
1169.6403
1173.4654
1177.7625
1173.8546
1174.2831
1175.1712
1176.5082
1178.2922
1180.5219
1183.1961
1186.3218
1189.9069
1193.9358
1190.5058
1190.907
1191.7392
1192.9924
1194.6651
1196.7565
1199.2657
1202.1921
1205.535
1209.2938
1206.2902
1206.6644
1207.4442
1208.6243
1210.1999
1212.1705
1214.536
1217.2961
1220.4511
1224.001
1221.4049
1221.7344
1222.4426
1223.5524
1225.0345
1226.8886
1229.1171
1231.7183
1234.6925
1238.061
1236.3961
1236.7116
1237.3699
1238.363
1239.6907
1241.3537
1243.3534
1245.6917
1248.4656
1251.6579
1250.7165
1251.0181
1251.6477
1252.5977
1253.868
1255.4598
1257.3746
1259.6147
1262.1824
1265.0807
1264.4015
1264.6911
1265.2964
1266.2109
1267.4339
1268.9667
1270.811
1272.9707
1275.4694
1278.2914
1277.5669
1277.847
1278.4323
1279.3158
1280.5074
1282.0034
1283.8039
1285.914
1288.3366
1291.0735
1290.3128
1290.5877
1291.1629
1292.0313
1293.1931
1294.6497
1296.4029
1298.4553
1300.8098
1303.4705
1302.6737
1302.9424
1303.505
1304.3545
1305.4911
1306.9161
1308.6316
1310.6401
1312.9445
1315.549
1314.6871
1314.95
1315.5009
1316.3327
1317.4458
1318.8415
1320.5263
1322.5002
1324.7652
1327.3253
1326.3765
1326.6355
1327.1784
1327.9983
1329.0955
1330.4712
1332.1275
1334.0669
1336.2927
1338.8186
1337.7569
1338.0129
1338.5498
1339.3608
1340.446
1341.8067
1343.445
1345.3634
1347.5647
1350.0529
1348.8397
1349.0923
1349.6249
1350.4295
1351.5062
1352.8563
1354.4817
1356.3849
1358.5688
1361.0373
1359.7014
1359.9496
1360.4706
1361.2575
1362.3103
1363.6304
1365.2393
1367.1325
1369.3049
1371.7603
1370.3045
1370.5516
1371.0704
1371.8541
1372.9028
1374.2176
1375.8002
1377.6529
1379.7897
1382.2179
1380.6403
1380.8868
1381.4047
1382.187
1383.2338
1384.5461
1386.1258
1387.9749
1390.0959
1392.4978
1390.7032
1390.9497
1391.4677
1392.2502
1393.2972
1394.6098
1396.1898
1398.0391
1400.1605
1402.5572
1400.5657
1400.8096
1401.3221
1402.0961
1403.1317
1404.4298
1405.992
1407.8342
1409.9597
1412.3612
1410.1829
1410.4315
1410.9536
1411.7422
1412.7892
1414.0922
1415.6603
1417.4954
1419.5998
1421.9766
1419.5271
1419.7766
1420.3008
1421.0927
1422.152
1423.4797
1425.0608
1426.9059
1429.0217
1431.4113
1428.7384
1428.9859
1429.5057
1430.2908
1431.3409
1432.6569
1434.2401
1436.0799
1438.1784
1440.5663
1437.7268
1437.9758
1438.4992
1439.2897
1440.3471
1441.6723
1443.2666
1445.1317
1447.2565
1449.646
1446.5203
1446.7676
1447.2873
1448.0722
1449.122
1450.4375
1452.0197
1453.8853
1456.0419
1458.4598
1455.1813
1455.4309
1455.9556
1456.7483
1457.8085
1459.1372
1460.7355
1462.605
1464.7476
1467.1641
1461.8632
1462.6007
1464.1115
1465.1766
1466.2308
1467.5517
1469.146
1471.0376
1473.2057
1475.6534
1467.5008
1468.2533
1469.7938
1472.1152
1474.6182
1475.9568
1477.5667
1479.4493
1481.6066
1484.0411
1472.9554
1473.7171
1475.276
1477.6241
1480.7664
1484.0802
1485.6831
1487.569
1489.7587
1492.2299
1478.3994
1479.1711
1480.7549
1483.1396
1486.3294
1490.3298
1493.8325
1495.7368
1497.9175
1500.3776
1483.8135
1484.5819
1486.1528
1488.5432
1491.753
1495.7785
1500.6234
1503.6202
1505.7921
1508.2551
1489.1259
1489.9052
1491.4984
1493.8923
1497.1215
1501.1862
1506.0783
1511.4494
1513.6488
1516.1269
1494.4851
1495.2728
1496.883
1499.3019
1502.5272
1506.613
1511.5324
1517.2802
1521.4082
1523.9048
1499.8704
1500.662
1502.2795
1504.7088
1507.9526
1512.033
1516.9716
1522.7435
1529.0668
1531.5821
1505.2995
1506.0975
1507.7281
1510.1766
1513.4392
1517.5123
1522.4303
1528.1906
1534.7965
1539.1593
1510.7454
1511.5491
1513.1915
1515.6573
1518.942
1523.0409
1527.9575
1533.7096
1540.2837
1546.6443
1516.2038
1517.0127
1518.6659
1521.1474
1524.452
1528.5741
1533.5066
1539.2498
1545.8115
1553.1751
1521.742
1522.5508
1524.2034
1526.6836
1529.9856
1534.1038
1539.0582
1544.7988
1551.3375
1558.6744
1527.3436
1528.1557
1529.8155
1532.306
1535.6207
1539.7526
1544.6926
1550.4109
1556.8812
1564.1642
1532.9502
1533.7651
1535.4308
1537.9296
1541.2543
1545.3967
1550.3465
1556.0901
1562.5198
1569.736
1538.6441
1539.4557
1541.1145
1543.6026
1546.9124
1551.0354
1555.9775
1561.7237
1568.145
1575.3053
1544.4033
1545.2152
1546.8751
1549.3644
1552.6745
1556.7958
1561.7159
1567.4195
1573.8053
1580.8657
1550.1436
1550.9554
1552.6156
1555.1045
1558.4126
1562.5289
1567.4395
1573.1272
1579.52
1586.5167
1556.0552
1556.8595
1558.5041
1560.9696
1564.2462
1568.3226
1573.1848
1578.8155
1585.1918
1592.126
1561.946
1562.7476
1564.3873
1566.8446
1570.1089
1574.1673
1579.0042
1584.6004
1590.9323
1597.7964
1567.9395
1568.7311
1570.3503
1572.7769
1576
1580.0069
1584.7819
1590.3309
1596.6186
1603.4673
1573.9927
1574.7793
1576.389
1578.8007
1582.0025
1585.9805
1590.7173
1596.1919
1602.3792
1609.16
1580.0988
1580.8731
1582.4577
1584.8319
1587.9838
1591.8995
1596.5872
1602.019
1608.1521
1614.906
1586.327
1587.0946
1588.6667
1591.0216
1594.1466
1598.0267
1602.6434
1607.9744
1613.9937
1620.6529
1592.581
1593.3344
1594.8778
1597.1896
1600.2575
1604.0666
1608.6432
1613.9291
1619.8935
1626.507
1598.9932
1599.7395
1601.2694
1603.5608
1606.6008
1610.3738
1614.8607
1620.0388
1625.8816
1632.3607
1605.4317
1606.1626
1607.6614
1609.9063
1612.8847
1616.5811
1620.9984
1626.1189
1631.895
1638.2983
1611.9556
1612.6776
1614.1592
1616.3786
1619.3226
1622.9759
1627.321
1632.3685
1638.0624
1644.3747
1618.6219
1619.3329
1620.7929
1622.9802
1625.8817
1629.4823
1633.7634
1638.7321
1644.3723
1650.627
1625.4406
1626.1435
1627.5887
1629.754
1632.6269
1636.1924
1640.4324
1645.3256
1650.8472
1656.9713
1632.349
1633.0368
1634.4511
1636.5705
1639.3826
1642.8728
1647.0236
1651.8143
1657.2307
1663.3425
1639.222
1639.906
1641.3145
1643.4259
1646.2283
1649.7076
1653.8472
1658.6272
1664.025
1670.0168
1646.4032
1647.0732
1648.4532
1650.5221
1653.2682
1656.678
1660.7352
1665.4208
1670.7127
1676.5879
1653.4641
1654.1204
1655.4729
1657.5005
1660.2006
1663.6091
1667.6672
1672.357
1677.6581
1683.5491
1660.8106
1661.4658
1662.8178
1664.8459
1667.5393
1670.8856
1674.8701
1679.4756
1684.6822
1690.4695
1668.151
1668.7941
1670.1214
1672.1127
1674.7573
1678.0433
1681.9566
1686.4805
1691.6947
1697.5117
1675.5133
1676.1567
1677.4869
1679.4833
1682.1359
1685.4336
1689.3631
1693.909
1699.0536
1704.7785
1683.1366
1683.7692
1685.0774
1687.0409
1689.6502
1692.8943
1696.7605
1701.2338
1706.2972
1711.933
1690.0988
1691.2565
1692.5435
1694.4753
1697.0427
1700.2494
1704.1377
1708.6388
1713.7365
1719.4143
1696.6358
1698.9727
1700.2662
1702.2086
1704.7907
1708.0026
1711.8326
1716.2669
1721.29
1726.886
1703.4067
1705.7479
1708.0123
1709.9255
1712.469
1715.6332
1719.4068
1723.7765
1728.7276
1734.2825
1710.2088
1712.4316
1715.6347
1717.5392
1720.1001
1723.2863
1727.0864
1731.4873
1736.4742
1742.0321
1717.5072
1719.6227
1723.6325
1725.5298
1728.0523
1731.1911
1734.9353
1739.2723
1744.1879
1749.6675
1724.8796
1726.879
1730.9396
1733.3962
1735.8818
1738.9749
1742.6652
1746.9406
1751.7874
1757.3304
1732.2532
1734.146
1738.0247
1741.2491
1743.7797
1746.9268
1750.6788
1755.022
1759.9412
1765.4207
1740.422
1742.2107
1745.8519
1749.6353
1752.1216
1755.2139
1758.9013
1763.1709
1768.0081
1773.3982
1748.5909
1750.2653
1753.6782
1757.8972
1760.3406
1763.38
1767.0052
1771.2037
1775.9618
1781.2654
1756.738
1758.3026
1761.4959
1766.0375
1768.4394
1771.4279
1774.9929
1779.1228
1783.8044
1789.0245
1764.8569
1766.316
1769.2982
1773.7612
1776.4215
1779.3609
1782.868
1786.9318
1791.5398
1796.6794
1772.9422
1774.2999
1777.079
1781.2428
1784.2889
1787.1808
1790.6319
1794.6317
1799.1684
1804.2401
1780.9891
1782.2497
1784.8339
1788.7107
1792.0556
1795.0409
1798.594
1802.6995
1807.3404
1812.499
1789.7429
1790.9343
1793.3847
1797.0665
1800.7013
1803.6116
1807.0765
1811.0818
1815.6114
1820.649
1798.7166
1799.8155
1802.0807
1805.4898
1809.2301
1812.0676
1815.447
1819.3549
1823.7764
1828.6962
1807.6266
1808.6365
1810.7234
1813.8698
1817.6439
1820.4107
1823.7069
1827.5201
1831.8365
1836.6418
1816.4717
1817.3961
1819.3115
1822.2051
1825.9463
1828.6446
1831.8603
1835.5819
1839.7964
1844.4907
1825.2495
1826.0917
1827.8423
1830.4928
1834.0582
1836.7717
1839.9094
1843.5421
1847.6577
1852.2443
1833.9587
1834.7219
1836.3141
1838.7308
1841.9919
1844.7947
1847.8568
1851.4034
1855.4232
1860.0216
1842.5979
1843.2852
1844.7251
1846.9169
1849.9865
1852.9556
1856.0932
1859.712
1863.7941
1868.3212
1851.7398
1852.3921
1853.7685
1855.8754
1858.7473
1861.6995
1864.725
1868.216
1872.156
1876.528
1860.9162
1861.5201
1862.7981
1864.7569
1867.4305
1870.3378
1873.2544
1876.6211
1880.4228
1884.6439
1869.9957
1870.5532
1871.7367
1873.5532
1876.0362
1878.8727
1881.6834
1884.9294
1888.5966
1892.6708
1878.9794
1879.4922
1880.585
1882.2648
1884.5646
1887.3065
1890.0143
1893.1429
1896.6793
1900.6104
1887.8684
1888.3383
1889.3439
1890.8923
1893.0161
1895.6413
1898.2491
1901.2635
1904.6726
1908.4645
1896.6639
1897.0926
1898.0143
1899.4365
1901.391
1903.8793
1906.3898
1909.2931
1912.5783
1916.2346
1905.3669
1905.756
1906.5972
1907.8979
1909.6898
1912.0168
1914.4383
1917.2512
1920.5499
1924.2056
1914.0398
1914.4045
1915.2008
1916.4412
1918.1639
1920.42
1922.8776
1925.6707
1928.8205
1932.3109
1922.9301
1923.2748
1924.0289
1925.203
1926.8322
1928.9628
1931.3334
1933.9981
1937.003
1940.3324
1931.7168
1932.042
1932.7556
1933.8661
1935.4052
1937.4154
1939.6959
1942.2356
1945.0993
1948.272
1940.4017
1940.7084
1941.3829
1942.4321
1943.8848
1945.7793
1947.9669
1950.3849
1953.1111
1956.1312
1948.9872
1949.2759
1949.9129
1950.9032
1952.2727
1954.0561
1956.1484
1958.4478
1961.0401
1963.9116
1957.4754
1957.7468
1958.3476
1959.2812
1960.5707
1962.2473
1964.2421
1966.4261
1968.8879
1971.6146
1965.8684
1966.1232
1966.689
1967.568
1968.7806
1970.3545
1972.2502
1974.3215
1976.6563
1979.2418
1974.1684
1974.4071
1974.9393
1975.7657
1976.9042
1978.3792
1980.1742
1982.1359
1984.3467
1986.813
1982.3773
1982.6005
1983.1003
1983.8759
1984.9434
1986.3519
1988.0801
1989.9677
1992.0868
1994.4207
1990.6102
1990.8235
1991.3034
1992.0476
1993.0699
1994.3893
1996.0173
1997.7875
1999.7724
2001.9555
1998.8052
1999.0045
1999.4549
2000.153
2001.1106
2002.3437
2003.8707
2005.5285
2007.3826
2009.4186
2006.9113
2007.097
2007.5187
2008.1721
2009.0669
2010.2167
2011.6364
2013.1923
2014.9187
2016.8113
2014.9303
2015.1027
2015.4967
2016.1068
2016.9407
2018.0097
2019.3258
2020.7803
2022.3754
2024.1047
2022.8728
2023.0343
2023.4052
2023.9777
2024.7561
2025.7471
2026.9579
2028.2962
2029.7459
2031.3115
2030.8053
2030.9512
2031.2896
2031.812
2032.5215
2033.4227
2034.5208
2035.74
2037.0476
2038.4533
2038.6551
2038.7857
2039.0924
2039.5661
2040.2084
2041.0224
2042.0109
2043.1127
2044.2815
2045.5312
2046.4239
2046.5395
2046.8154
2047.2416
2047.8185
2048.5476
2049.4297
2050.4156
2051.449
2052.5463
2054.1133
2054.2144
2054.4601
2054.8401
2055.3533
2055.9998
2056.7785
2057.6314
2058.4897
2059.365
2061.7413
2061.8283
2062.044
2062.3753
2062.8172
2063.3642
2064.0092
2064.7162
2065.4068
2066.0941
2069.3344
2069.4021
2069.5785
2069.8501
2070.2111
2070.6551
2071.1736
2071.7379
2072.2644
2072.7678
2076.8525
2076.9015
2077.0395
2077.2526
2077.5346
2077.8779
2078.2731
2078.6972
2079.0631
2079.3866
2084.2972
2084.3279
2084.4282
2084.5843
2084.789
2085.034
2085.3087
2085.5951
2085.8039
2085.9517
2091.67
2091.6827
2091.7462
2091.8465
2091.9756
2092.1247
2092.282
2092.4023
2092.3837
2092.2396
2098.9758
2098.9697
2098.9934
2099.0295
2099.0654
2099.0855
2099.0706
2098.997
2098.7787
2098.4075
2106.2266
2106.196
2106.1697
2106.1307
2106.0658
2105.9595
2105.792
2105.5392
2105.1246
2104.531
2113.4097
2113.3552
2113.28
2113.1673
2113.0039
2112.7738
2112.457
2112.0289
2111.4215
2110.6098
2120.5265
2120.4484
2120.3253
2120.1405
2119.8806
2119.5292
2119.0662
2118.4666
2117.6698
2116.6445
2127.5782
2127.477
2127.307
2127.0515
2126.697
2126.2269
2125.6208
2124.8537
2123.8303
2122.4433
2134.5663
2134.4425
2134.2265
2133.8949
2133.4239
2132.7939
2131.9753
2130.933
2129.6069
2127.9434
2141.4377
2141.2817
2140.9981
2140.5672
2139.9699
2139.1825
2138.1761
2136.916
2135.3469
2133.4122
2148.2395
2148.0529
2147.7072
2147.1831
2146.462
2145.5205
2144.33
2142.8564
2141.0488
2138.848
2154.9818
2154.7651
2154.3584
2153.7431
2152.9006
2151.8079
2150.4369
2148.7539
2146.7123
2144.2503
2161.6655
2161.4193
2160.9528
2160.2479
2159.2863
2158.0453
2156.4971
2154.6089
2152.3375
2149.6202
2168.2921
2168.0171
2167.4918
2166.6989
2165.6205
2164.2341
2162.5128
2160.3159
2157.6316
2154.4075
2174.8047
2174.4902
2173.8814
2172.9579
2171.6959
2170.0661
2168.0328
2165.5543
2162.5834
2159.0434
2181.0494
2180.6972
2180.0123
2178.9752
2177.563
2175.7474
2173.4939
2170.7623
2167.5072
2163.658
2187.2402
2186.8515
2186.0926
2184.9451
2183.3869
2181.3906
2178.9229
2175.9452
2172.4136
2168.2631
2193.3788
2192.954
2192.1221
2190.8655
2189.1631
2186.9882
2184.3088
2181.0876
2177.2825
2172.8333
2199.4669
2199.0066
2198.1031
2196.7395
2194.8954
2192.5451
2189.6579
2186.1978
2182.1244
2177.3835
2205.5059
2205.0108
2204.0366
2202.5677
2200.5843
2198.0618
2194.9677
2191.0849
2186.5117
2181.1991
2211.3553
2210.8058
2209.7172
2208.0725
2205.8489
2203.0181
2199.5467
2195.397
2190.5282
2184.901
2216.7461
2216.1558
2214.9847
2213.2176
2210.8332
2207.8051
2204.1022
2199.6895
2194.5295
2188.5914
2222.096
2221.4656
2220.2136
2218.3264
2215.784
2212.5621
2208.6324
2203.8245
2198.1362
2191.6231
2227.278
2226.5818
2225.1915
2223.0963
2220.2778
2216.7136
2212.378
2207.2429
2201.2791
2194.4701
2231.7303
2230.9948
2229.525
2227.312
2224.3394
2220.5871
2216.0319
2210.6489
2204.4127
2197.3077
2236.1495
2235.3754
2233.8274
2231.4987
2228.3744
2224.4368
2219.6656
2214.0402
2207.2837
2199.6068
2240.5364
2239.7222
2238.0246
2235.4728
2232.0564
2227.763
2222.5793
2216.4926
2209.4914
2201.5658
2243.9012
2243.0189
2241.2519
2238.5979
2235.0483
2230.5934
2225.1359
2218.6433
2211.2136
2202.8477
2246.8885
2245.9405
2244.0437
2241.1984
2237.4021
2232.6527
2226.9486
2220.2901
2212.6725
2203.8561
2249.2398
2248.2609
2246.3096
2243.384
2239.4235
2234.3626
2228.3105
2221.28
2213.2879
2204.3509
2250.775
2249.7346
2247.662
2244.5592
2240.4326
2235.2909
2229.1455
2221.9627
2213.5857
2204.2729
2251.9203
2250.8182
2248.6192
2245.3348
2240.978
2235.5679
2229.1279
2221.6855
2213.272
2203.9206
2251.7905
2250.6824
2248.4706
2245.1702
2240.7925
2235.357
2228.7783
2221.0384
2212.3297
2202.6969
2251.2156
2250.0617
2247.7502
2244.3076
2239.7515
2234.111
2227.4208
2219.7198
2211.053
2201.2254
2249.7366
2248.5906
2246.2911
2242.8678
2238.337
2232.5442
2225.6543
2217.7497
2208.8849
2199.1139
2247.4706
2246.2968
2243.9308
2240.4118
2235.7618
2230.0168
2223.2188
2215.4164
2206.4861
2196.5634
2244.7118
2243.5574
2241.2257
2237.6646
2232.9181
2227.0631
2220.1487
2212.2306
2203.3686
2193.623
2240.9481
2239.7809
2237.4142
2233.8925
2229.2429
2223.505
2216.7262
2208.8479
2199.9112
2190.1022
2236.9567
2235.7829
2233.3945
2229.8385
2225.1467
2219.3625
2212.5369
2204.7276
2195.9962
2186.4079
2232.0626
2230.9216
2228.5962
2225.1297
2220.5547
2214.9124
2208.169
2200.2547
2191.4189
2181.7307
2226.8375
2225.6873
2223.3353
2219.8256
2215.1954
2209.4892
2202.7591
2195.0642
2186.4686
2177.0379
2220.771
2219.6551
2217.372
2213.9639
2209.4667
2203.9224
2197.3806
2189.8976
2181.5347
2172.3548
2214.752
2213.6692
2211.4529
2208.1432
2203.7746
2198.3873
2192.0288
2184.7526
2176.6197
2167.3608
2208.7785
2207.7279
2205.5766
2202.3626
2198.1199
2192.6839
2186.243
2178.8769
2170.6485
2161.6222
2202.091
2201.0322
2198.8575
2195.6074
2191.3174
2186.0274
2179.7848
2172.6439
2164.6644
2155.9082
2194.9764
2193.9518
2191.8461
2188.6983
2184.5423
2179.4167
2173.3668
2166.4447
2158.7077
2150.2157
2187.9178
2186.9262
2184.8875
2181.8392
2177.8138
2172.8484
2166.9866
2160.2793
2152.6345
2144.1078
2180.9136
2179.9544
2177.981
2175.0019
2170.9685
2165.9914
2160.1141
2153.3865
2145.8643
2137.6053
2173.2332
2172.2756
2170.3003
2167.3452
2163.4409
2158.6229
2152.933
2146.4191
2139.1349
2131.1362
2165.4444
2164.5186
2162.6074
2159.748
2155.9697
2151.3068
2145.7995
2139.4941
2132.4425
2124.6989
2157.7172
2156.8223
2154.9735
2152.2075
2148.5521
2144.0406
2138.712
2132.6118
2125.6136
2117.8782
2150.0501
2149.1854
2147.3978
2144.6506
2141.0107
2136.5154
2131.2022
2125.1143
2118.3002
2110.8107
2141.8422
2140.9834
2139.2037
2136.5395
2133.0164
2128.6653
2123.5226
2117.6298
2111.0338
2103.7841
2133.6215
2132.7914
2131.0696
2128.4918
2125.0829
2120.8728
2115.8964
2110.1943
2103.8118
2096.7973
2125.466
2124.6638
2122.9985
2120.5052
2117.2078
2113.1355
2108.3221
2102.8074
2096.5205
2089.5318
2117.3743
2116.5993
2114.9894
2112.5537
2109.2816
2105.237
2100.4519
2094.9633
2088.8128
2082.0445
2108.906
2108.1386
2106.5405
2104.1461
2100.9775
2097.0609
2092.4273
2087.1126
2081.1571
2074.6037
2100.412
2099.6698
2098.123
2095.8053
2092.7379
2088.9466
2084.4613
2079.3169
2073.5524
2067.21
2091.9851
2091.2676
2089.7708
2087.5279
2084.5595
2080.8906
2076.5503
2071.5725
2065.9942
2059.6844
2083.6246
2082.9313
2081.4836
2079.3141
2076.443
2072.8065
2068.4997
2063.5537
2058.004
2051.8882
2075.0602
2074.3748
2072.9403
2070.7889
2067.9395
2064.4143
2060.2396
2055.4456
2050.0666
2044.1393
2066.4027
2065.7393
2064.3496
2062.2651
2059.5042
2056.0885
2052.0436
2047.3988
2042.1877
2036.446
2057.8136
2057.1716
2055.8254
2053.8059
2051.1308
2047.8214