/*--------------------------------*- C++ -*----------------------------------*\
  =========                 |
  \\      /  F ield         | OpenFOAM: The Open Source CFD Toolbox
   \\    /   O peration     | Website:  https://openfoam.org
    \\  /    A nd           | Version:  7
     \\/     M anipulation  |
\*---------------------------------------------------------------------------*/
FoamFile
{
    version     2.0;
    format      ascii;
    class       volScalarField;
    location    "80000";
    object      YCO;
}
// * * * * * * * * * * * * * * * * * * * * * * * * * * * * * * * * * * * * * //

dimensions      [0 0 0 0 0 0 0];

internalField   nonuniform List<scalar> 
87000
(
3.1598367e-08
3.5546754e-08
4.5706644e-08
6.69473e-08
1.1300269e-07
2.2814449e-07
6.0259262e-07
1.682346e-05
0.00015212437
0.0035551625
2.0537003e-07
2.2516282e-07
3.0053518e-07
4.6144335e-07
8.1554256e-07
2.4583286e-06
2.5491569e-05
0.00011429975
0.00061296746
0.0051680722
6.5133248e-07
7.2019467e-07
9.6604304e-07
1.485332e-06
4.7505939e-06
2.9399827e-05
0.00012751339
0.00028102092
0.0012425574
0.0064828512
1.537776e-06
1.7238586e-06
2.3009458e-06
6.8009e-06
3.2260847e-05
9.39831e-05
0.00020421419
0.00054726712
0.001987322
0.0075582476
3.0507019e-06
3.4608255e-06
8.326154e-06
3.4233334e-05
7.8872318e-05
0.00019663325
0.00035143437
0.00091973479
0.0027661341
0.0083648827
5.4091341e-06
9.2577349e-06
3.0211084e-05
7.1423996e-05
0.00018504549
0.00027510847
0.00054896324
0.001342076
0.0035210666
0.0089566623
1.0353171e-05
2.5273428e-05
6.8718772e-05
0.00014174584
0.00026172864
0.00040581997
0.00079422263
0.0018050677
0.0042257124
0.0094146295
2.1460971e-05
6.5191044e-05
0.00012054527
0.00027469886
0.00033658427
0.00056074157
0.0010836761
0.0022898354
0.0048741345
0.0097964723
4.322267e-05
0.00011087797
0.00020768695
0.00034818624
0.00045640971
0.0007530291
0.0014251416
0.0027799783
0.00546535
0.010124679
8.3586228e-05
0.00017200459
0.00035160648
0.00041287307
0.00059517388
0.00097048882
0.0017680659
0.0032648693
0.006002355
0.010411271
0.00015421586
0.00026290422
0.00048477634
0.00052285852
0.00074941784
0.0012114618
0.0021266243
0.0037392895
0.0064940964
0.010672096
0.00022459201
0.00039858837
0.00054679488
0.00065461238
0.00093342566
0.0014781746
0.0024955315
0.0042001296
0.0069478356
0.010915012
0.0003115424
0.00059111791
0.00063613186
0.00080283065
0.0011354611
0.001764709
0.0028716861
0.0046476211
0.0073717588
0.011147196
0.00042167485
0.00084210935
0.00076135657
0.00096327875
0.0013556484
0.00209098
0.0032501279
0.0050797417
0.0077687395
0.011369402
0.00056216139
0.0009599934
0.00091301947
0.0011413001
0.0015924964
0.0024007086
0.0036282231
0.0054951672
0.0081404404
0.011580842
0.00073714472
0.0010601859
0.0010772908
0.0013428493
0.0018447936
0.0027198771
0.0040053429
0.0058963447
0.0084922419
0.01178541
0.00095080131
0.0011481249
0.0012574029
0.0015592552
0.0021151385
0.0030469444
0.0043806445
0.0062848641
0.0088277074
0.011984967
0.0012082185
0.0013177661
0.0014492723
0.00178981
0.0023990241
0.0033806798
0.0047536442
0.0066621604
0.0091497553
0.012181147
0.0015149884
0.0014930448
0.0016525304
0.00203455
0.0026954409
0.0037201331
0.0051242092
0.0070295984
0.0094607794
0.012375155
0.0018743316
0.0017001916
0.0018667598
0.0022938891
0.0030036621
0.0040655181
0.0054936898
0.0073900102
0.0097643308
0.012569655
0.0022907683
0.0019245241
0.0021094423
0.0025668751
0.0033596865
0.004413461
0.0058597878
0.0077422989
0.010059791
0.012763036
0.0027626506
0.0021617927
0.002365919
0.0028513445
0.0036828098
0.0047632974
0.0062208177
0.0080850222
0.010345824
0.012953084
0.0030550376
0.0024116777
0.0026355778
0.0031484862
0.0040135548
0.0051158161
0.0065787221
0.0084207909
0.010625226
0.013141878
0.0033256476
0.0026786338
0.0029180475
0.0034592362
0.0043514282
0.0054707167
0.0069340824
0.0087508694
0.010899458
0.013330454
0.0035964152
0.0029591335
0.0032129912
0.0037805534
0.0046959319
0.0058277131
0.0072871873
0.0090761943
0.011169531
0.013519109
0.0038666052
0.0032522689
0.0035200333
0.0041117922
0.0050466335
0.0061866145
0.0076383293
0.0093974687
0.011436276
0.013708177
0.0041358449
0.0035577824
0.0038388517
0.0044523965
0.0054030687
0.006547259
0.0079877327
0.0097152977
0.011700475
0.013898159
0.0044044814
0.0038755632
0.0041687753
0.0048017146
0.0057649013
0.0069095983
0.0083357973
0.0100303
0.011962638
0.014089375
0.0046731282
0.0042051682
0.0045103166
0.0051592075
0.0061317951
0.0072735764
0.008682752
0.010342977
0.012223244
0.014281968
0.0049449659
0.0045468151
0.0048628208
0.0055241778
0.0065034032
0.0076390894
0.0090287864
0.010653758
0.012482726
0.014475999
0.0052227418
0.0049004934
0.0052250317
0.0058960203
0.0068794073
0.0080060671
0.009374149
0.010963079
0.012741604
0.014671766
0.0055799537
0.0052654698
0.0055963095
0.0062740979
0.0072595378
0.0083744928
0.0097192023
0.011271446
0.01300029
0.014869524
0.0059858005
0.0056412906
0.0059760038
0.0066578403
0.007643564
0.0087444376
0.010064039
0.011579052
0.013259015
0.01506936
0.0064016093
0.0060272413
0.0063635054
0.0070466689
0.0080311776
0.0091158153
0.010408793
0.011886153
0.013517975
0.015271264
0.0068218909
0.0064226009
0.0067582148
0.0074399497
0.0084220738
0.0094886002
0.010753744
0.012193196
0.013777632
0.0154755
0.0072451422
0.0068270717
0.0071595308
0.0078371783
0.0088160013
0.0098627866
0.011099129
0.012500436
0.014038186
0.015682217
0.0076791232
0.0072404487
0.0075668765
0.0082378855
0.0092128507
0.010238329
0.011444901
0.012807907
0.014299672
0.015891353
0.0081298987
0.0076628648
0.0079797856
0.0086415091
0.0096123079
0.010615201
0.011791168
0.013115816
0.014562285
0.016103012
0.008596968
0.0080945344
0.0083978224
0.0090476806
0.010014071
0.010993265
0.012138139
0.013424553
0.014826426
0.016317417
0.0090754544
0.0085361133
0.008820663
0.0094561277
0.010418107
0.011372616
0.012485873
0.013734105
0.015092042
0.016534534
0.0095621949
0.008987189
0.0092476173
0.0098665085
0.010824093
0.011753147
0.012834347
0.01404444
0.015359097
0.01675419
0.010057491
0.0094459773
0.0096785767
0.010278389
0.011231789
0.012134662
0.013183589
0.014355764
0.015627772
0.016976497
0.010561046
0.0099124439
0.010113801
0.010691325
0.011641014
0.012517051
0.013533378
0.014667892
0.015897925
0.017201294
0.011072571
0.010385667
0.010554039
0.011105205
0.012051217
0.012899956
0.013883551
0.014980609
0.016169313
0.017428338
0.011593136
0.01086585
0.010997027
0.011518647
0.012461559
0.013280906
0.014231455
0.015291457
0.016439721
0.017655677
0.012122556
0.011351234
0.011440366
0.01192938
0.012696375
0.013666553
0.014582095
0.015604561
0.01671249
0.017885952
0.012652551
0.011837202
0.011884836
0.012344023
0.013088763
0.014054401
0.014936998
0.015922406
0.016990349
0.018121767
0.013183587
0.012325313
0.012330898
0.012768274
0.013479572
0.014441942
0.015292443
0.016241702
0.017270586
0.01836087
0.013719012
0.012816341
0.012777921
0.013194791
0.013869025
0.014829256
0.015647999
0.016561756
0.017552414
0.018602509
0.014258717
0.013309837
0.013225164
0.013621125
0.01425695
0.015216092
0.016003317
0.016882192
0.01783534
0.018846205
0.014838312
0.013805444
0.013671852
0.014046717
0.01464263
0.015601805
0.016356402
0.01720055
0.018117006
0.019089751
0.015594589
0.014302427
0.014116294
0.014468708
0.015023798
0.015763168
0.016713959
0.017521969
0.018401408
0.019336215
0.016346077
0.014797107
0.014558787
0.014889799
0.015407585
0.016119415
0.017072112
0.017846789
0.018690303
0.01958774
0.017091365
0.015290022
0.015000049
0.015310218
0.015789974
0.016472382
0.017428694
0.018171089
0.018979858
0.019841077
0.01785609
0.01579195
0.015439714
0.015734929
0.016179151
0.016822206
0.017783414
0.018493012
0.019267499
0.020093446
0.018651122
0.016300946
0.015876237
0.016158512
0.016573961
0.017167426
0.017876463
0.018819201
0.019558253
0.02034866
0.019455137
0.01680678
0.016371804
0.016579093
0.016967262
0.017514865
0.018194022
0.019144546
0.019849976
0.020605858
0.020263124
0.017309146
0.016873103
0.016996547
0.017357505
0.017855917
0.018505945
0.019218814
0.020146355
0.020866945
0.021067064
0.017807139
0.017369939
0.017410726
0.0177454
0.018198205
0.018820174
0.019502738
0.020441787
0.021130096
0.021869268
0.018300783
0.017864654
0.017821935
0.018131084
0.018563096
0.019131207
0.019782027
0.020734997
0.021392751
0.022684066
0.018790572
0.018356977
0.018229503
0.018522858
0.018924882
0.019437656
0.020058933
0.020721719
0.021658348
0.023509404
0.019276007
0.018844869
0.018632635
0.018912102
0.019282977
0.019742371
0.020332271
0.020967863
0.021632444
0.02433755
0.019765399
0.019326871
0.019031177
0.019297192
0.019637904
0.020068451
0.020606856
0.02121192
0.021849236
0.025169059
0.020388646
0.019802319
0.019463337
0.019677969
0.019989483
0.02039891
0.020879902
0.021453801
0.022060625
0.026008047
0.021003992
0.020270639
0.019954074
0.020054315
0.020349241
0.020726602
0.021162377
0.021696942
0.022273445
0.026858079
0.02161346
0.020745888
0.020437925
0.020425174
0.020705492
0.021049677
0.021463537
0.021936365
0.022482107
0.02770811
0.022214979
0.021233377
0.020917965
0.020789717
0.021055702
0.02136735
0.021759715
0.022188964
0.022689315
0.028545537
0.0228035
0.021710683
0.021388754
0.021148521
0.021400817
0.021696563
0.022053294
0.022460751
0.022900667
0.029366767
0.023439984
0.022177277
0.02184822
0.021592285
0.021741155
0.022021711
0.022344863
0.022731737
0.023147944
0.030170907
0.02472558
0.02263269
0.022296014
0.022059714
0.022077081
0.022343305
0.022645871
0.023002135
0.02339799
0.030923702
0.02594816
0.023077
0.022732822
0.022515896
0.02240879
0.022661464
0.022948775
0.0232718
0.023648299
0.031367777
0.027111462
0.023553303
0.023175607
0.022964707
0.022762263
0.022976253
0.023249137
0.023552369
0.023898541
0.031817503
0.028227927
0.024187132
0.023631049
0.02340216
0.02321495
0.023287733
0.023546911
0.023835066
0.024149574
0.032271485
0.02929993
0.024799623
0.024075232
0.023829018
0.023655791
0.023595936
0.023842053
0.024115892
0.024414984
0.032729307
0.030329389
0.025392042
0.0245089
0.024246246
0.024090132
0.023942699
0.02413454
0.024394706
0.024679091
0.03319005
0.031319681
0.025966029
0.024932779
0.024654371
0.024515702
0.024379269
0.024424379
0.024671488
0.024941805
0.03365322
0.032272162
0.026522422
0.025347394
0.025092684
0.024931057
0.024804584
0.024711623
0.024946233
0.025203094
0.034118101
0.033196096
0.027789686
0.025829131
0.025523566
0.02533676
0.025224565
0.025126465
0.025218968
0.025462969
0.0345833
0.034094316
0.029161287
0.026463388
0.025943711
0.025732979
0.025634984
0.025543712
0.025489671
0.025721394
0.035049307
0.034962895
0.030466083
0.027074027
0.026353578
0.026140225
0.0260352
0.025952752
0.025890099
0.025978417
0.035516058
0.035768547
0.031703488
0.027661888
0.026753628
0.02656277
0.026425605
0.026354823
0.026295653
0.026257647
0.03598355
0.036180393
0.032875566
0.028228209
0.027145123
0.026974094
0.026806658
0.026746603
0.026693068
0.026660374
0.036451506
0.036601197
0.033988811
0.029018064
0.027790241
0.027374847
0.027208392
0.027128604
0.027084141
0.027051802
0.036919431
0.037029366
0.035054994
0.030540026
0.028408865
0.027765318
0.02761735
0.027501204
0.027465113
0.027437448
0.037387142
0.037463758
0.036071781
0.031969585
0.029000795
0.028146209
0.028015072
0.027876736
0.027836548
0.027815522
0.037854675
0.037903609
0.037034213
0.033306594
0.029568156
0.028687963
0.028402426
0.028279887
0.028198955
0.028184105
0.038321962
0.038348049
0.037944446
0.034557586
0.030157648
0.029312518
0.028780153
0.028671865
0.028561148
0.028543802
0.038788959
0.038796314
0.038806695
0.035737555
0.031739155
0.029909541
0.029148604
0.029053417
0.028955903
0.028895284
0.039255552
0.039247656
0.039229495
0.036847973
0.033211747
0.03047991
0.029724152
0.029425498
0.029339761
0.029254277
0.039721734
0.039701481
0.03965954
0.037887468
0.034578134
0.031025766
0.030336223
0.029788951
0.029713858
0.029638883
0.040187449
0.040157337
0.040096372
0.038858156
0.035850081
0.03218601
0.030920394
0.030224365
0.030079089
0.030013625
0.040652718
0.040614822
0.040538852
0.039767934
0.037036553
0.033691628
0.031478483
0.03084045
0.030436384
0.030379392
0.041117464
0.04107351
0.040985897
0.040620004
0.038137443
0.035079308
0.032011618
0.031426484
0.030791975
0.030737321
0.041581545
0.041532924
0.041436301
0.041285836
0.039152832
0.036358963
0.033093762
0.031986261
0.031402438
0.031088475
0.042044871
0.04199271
0.041889191
0.041729492
0.040092587
0.037542679
0.034544048
0.032521181
0.031982293
0.031433724
0.042507252
0.042452449
0.042343765
0.042177317
0.040961315
0.038629546
0.035868807
0.033032243
0.032535174
0.032000942
0.042968453
0.042911704
0.042799198
0.042627804
0.041760036
0.03962162
0.037081521
0.03418655
0.033064062
0.032568026
0.043428157
0.043369996
0.043254703
0.043079759
0.042493658
0.040527868
0.03818901
0.035506661
0.033569687
0.033108422
0.043885782
0.0438266
0.043709267
0.043531749
0.043163652
0.04135115
0.039191357
0.036698605
0.03405422
0.033624858
0.044340448
0.044280488
0.044161584
0.04398204
0.043738145
0.04209183
0.040089884
0.037773249
0.035174133
0.034119642
0.044791312
0.044730713
0.044610488
0.044429138
0.044183369
0.042755116
0.040894149
0.038736897
0.03630215
0.034594489
0.045237084
0.045175925
0.045054525
0.044871559
0.044624024
0.043344005
0.041606515
0.039588934
0.037298593
0.035050714
0.045675824
0.045614062
0.045491375
0.045306563
0.045056832
0.04385499
0.042225188
0.040329761
0.038170823
0.035775732
0.046105383
0.046042919
0.04591874
0.045731743
0.04547924
0.044289645
0.042753784
0.040965376
0.038925008
0.036651258
0.046523027
0.04645971
0.046333723
0.046144029
0.045858901
0.044647255
0.043193138
0.041498084
0.039561321
0.037393727
0.046925319
0.046860943
0.046732727
0.046539598
0.046078536
0.044926455
0.043543254
0.041928908
0.040081798
0.038007614
0.047308233
0.047242552
0.047111599
0.046914184
0.046227284
0.045126492
0.043804299
0.042259478
0.040489736
0.038497696
0.047667247
0.047599994
0.047465695
0.047147633
0.046303433
0.045246804
0.043977051
0.042492081
0.040789117
0.038869439
0.047997147
0.047927963
0.04773004
0.047120309
0.046306555
0.045288285
0.044063727
0.042630469
0.04098539
0.039129823
0.048204551
0.048008957
0.047615673
0.047025892
0.046239189
0.045254187
0.044068931
0.042680789
0.041086415
0.039288425
0.0480125
0.047822725
0.047441393
0.046869674
0.046106674
0.045150934
0.044000389
0.042652302
0.041103279
0.039358178
0.047770244
0.047585936
0.04721548
0.046659855
0.045918135
0.044988825
0.043869837
0.042558454
0.041051357
0.039356694
0.047490278
0.047310985
0.046950567
0.046409941
0.045688178
0.044783807
0.043694798
0.042418531
0.040952811
0.039446712
0.047191494
0.047017119
0.046666594
0.04614081
0.045438889
0.044559456
0.04350063
0.042260033
0.04083891
0.039863161
0.046900919
0.046731652
0.046391469
0.045881258
0.045200252
0.044347255
0.043320644
0.042118398
0.040745755
0.04030297
0.046654327
0.046490628
0.046161777
0.045668672
0.045010694
0.044186879
0.043195924
0.042037412
0.040967875
0.040773697
0.046496334
0.046338933
0.04602296
0.045549332
0.044917625
0.044127162
0.043177041
0.042069124
0.041467172
0.041283146
0.046478252
0.046328081
0.046026925
0.045575716
0.044974241
0.04422215
0.043318979
0.042268291
0.042012066
0.041839192
0.046655135
0.04651323
0.046229033
0.04580347
0.045236541
0.044528219
0.043678649
0.042753256
0.042609678
0.042449121
0.047080521
0.046947918
0.046682797
0.046286049
0.04575787
0.045098528
0.044308383
0.04339692
0.043265343
0.043118244
0.047799045
0.047676616
0.047432329
0.047066997
0.046580964
0.045974723
0.045248906
0.044406065
0.043981354
0.043848489
0.048838349
0.048726665
0.048504322
0.048172018
0.047730178
0.047179431
0.046520587
0.045754633
0.044883621
0.044637534
0.050202342
0.050101562
0.049901409
0.049602431
0.04920506
0.048709961
0.048117983
0.047430155
0.04664768
0.045772084
0.051867237
0.05177709
0.051598494
0.051331823
0.050977465
0.050536032
0.050008314
0.049395264
0.048697988
0.047917735
0.053782368
0.053702169
0.053543644
0.053306999
0.052992525
0.052600716
0.05213222
0.051587816
0.050968392
0.050274948
0.055877205
0.055805959
0.055665399
0.055455581
0.055176681
0.05482905
0.054413156
0.053929557
0.053378888
0.052761862
0.058072383
0.058008904
0.057883842
0.057697134
0.057448838
0.05713915
0.056768346
0.056336759
0.055844766
0.055292774
0.060292141
0.060235198
0.060123094
0.059955675
0.059732915
0.059454879
0.059121682
0.05873346
0.058290362
0.05779254
0.06246217
0.062415676
0.06231999
0.062168534
0.061966946
0.061715228
0.061413329
0.06106136
0.06065932
0.060207086
0.064458845
0.064415638
0.064330673
0.064203611
0.064034143
0.06382194
0.063566622
0.063267684
0.062909184
0.062494474
0.066398786
0.066358365
0.066278881
0.066159985
0.066001328
0.065802524
0.065563113
0.065282544
0.064960237
0.064595501
0.068254919
0.06821681
0.068141823
0.068029582
0.067879766
0.067691979
0.067465755
0.067200539
0.066895687
0.066550324
0.070009902
0.069973707
0.06990246
0.069795833
0.069653486
0.069475006
0.069259905
0.069007477
0.068717053
0.068387858
0.071656215
0.071621627
0.071553493
0.071451502
0.071315301
0.071144484
0.070938565
0.070696969
0.070419032
0.070103859
0.073192431
0.073159193
0.073093667
0.072995562
0.072864534
0.07270018
0.072502017
0.072269474
0.072001894
0.071698385
0.074620627
0.07458858
0.074525355
0.074430682
0.074304225
0.074145591
0.073954088
0.073729278
0.07347057
0.073177081
0.075946226
0.075915177
0.075853876
0.075762073
0.075639443
0.075485604
0.075300097
0.07508238
0.074831808
0.074547003
0.077175995
0.077145811
0.077086182
0.076996874
0.076877576
0.076727918
0.076547458
0.07633567
0.076091953
0.075815475
0.078317112
0.078287741
0.078229581
0.078142463
0.078026093
0.077880115
0.077704104
0.077497554
0.077259891
0.076990304
0.079376008
0.079347322
0.07929059
0.079205616
0.079092119
0.078949762
0.078777767
0.078575883
0.078343621
0.078080197
0.08036022
0.08033215
0.080276611
0.080193423
0.080082315
0.079942969
0.079775002
0.079577961
0.079350758
0.079092944
0.081276384
0.081248871
0.08119441
0.081112837
0.081003895
0.080867281
0.080702628
0.080509509
0.080287434
0.080035403
0.082130711
0.082103704
0.082050225
0.081970122
0.081863152
0.081729026
0.081567397
0.081377859
0.081159947
0.080912983
0.082928668
0.082902133
0.082849574
0.082770853
0.082665743
0.082533974
0.082375222
0.082189024
0.081974922
0.081732329
0.083669614
0.083644212
0.083593897
0.083518534
0.083416441
0.083286755
0.083130533
0.082947419
0.082737007
0.082498686
0.084363256
0.084338286
0.084288811
0.084214709
0.084115767
0.083991737
0.083838778
0.083658409
0.083451188
0.083216525
0.085013626
0.084989082
0.084940443
0.084867598
0.084770349
0.084648464
0.084501665
0.084326442
0.084122472
0.083891357
0.085624855
0.085600684
0.085552774
0.085481021
0.085385237
0.085265202
0.085120651
0.084951275
0.084752603
0.084524672
0.086200237
0.086176461
0.086129325
0.086058731
0.085964503
0.085846436
0.085704287
0.085537569
0.085345867
0.08512231
0.086741821
0.086718386
0.086671894
0.086602244
0.086509272
0.086392784
0.08625255
0.0860883
0.085899733
0.085685472
0.087402871
0.087338574
0.087208682
0.087116354
0.08702481
0.086910117
0.086771987
0.086609777
0.086423574
0.086212914
0.088190705
0.088117921
0.087971081
0.087748404
0.087509749
0.087396301
0.0872598
0.087100007
0.086916656
0.086709308
0.089026086
0.088945581
0.088783269
0.088537571
0.088205423
0.087858379
0.087723839
0.087566182
0.087384661
0.087179388
0.089890041
0.089801991
0.089625401
0.089358469
0.088998273
0.088541174
0.088159021
0.088002891
0.087823939
0.087621657
0.090782051
0.090685156
0.09049029
0.09020233
0.08981711
0.089328891
0.088733816
0.088419788
0.088243306
0.088043609
0.091684937
0.091581624
0.091373888
0.091061325
0.090649563
0.090132691
0.08950341
0.088812715
0.088637452
0.088439717
0.092586026
0.092476895
0.092257487
0.091927591
0.091485783
0.09094224
0.090282649
0.089502739
0.089009968
0.088813521
0.093479212
0.093364941
0.093135241
0.09279006
0.092327895
0.091751637
0.091064784
0.090253023
0.089362181
0.089166673
0.094358185
0.094239097
0.093999721
0.093640194
0.093159478
0.092556237
0.091842566
0.091003896
0.090033865
0.08950061
0.095220079
0.095096589
0.094848368
0.094475742
0.093977888
0.093353757
0.092609054
0.091746293
0.090749776
0.089816167
0.096062106
0.095934576
0.095678222
0.09529356
0.09477998
0.094136713
0.093362934
0.092477465
0.091456523
0.090298723
0.096877293
0.096746409
0.096483345
0.09608876
0.095562214
0.094903123
0.094109036
0.093195252
0.092153125
0.090972115
0.097663527
0.097529334
0.097259593
0.096855151
0.09631578
0.095641223
0.094831302
0.093893407
0.092835363
0.091634777
0.098423727
0.098286467
0.098010524
0.097596931
0.097045679
0.096356798
0.095530452
0.094567257
0.093493244
0.092277422
0.099149729
0.099010144
0.098729557
0.098309137
0.097749043
0.097049516
0.096209256
0.09522921
0.094132884
0.092902846
0.099840915
0.099698802
0.09941308
0.098985105
0.09841525
0.09770405
0.096852313
0.095861311
0.094748028
0.093510104
0.10050601
0.1003615
0.10007088
0.0996357
0.099056547
0.098334243
0.097469964
0.096465395
0.095331856
0.094084164
0.10112262
0.10097659
0.10068296
0.1002434
0.099658668
0.098929803
0.098058246
0.097045946
0.095896072
0.09463919
0.10171223
0.10156416
0.10126634
0.10082063
0.100228
0.099489779
0.09860777
0.097584372
0.096422922
0.095159565
0.10226024
0.10211105
0.10181103
0.10136215
0.10076554
0.10002275
0.099135813
0.098103379
0.09693052
0.095651849
0.10277112
0.10262016
0.10231642
0.10186211
0.10125855
0.10050758
0.099611591
0.098573738
0.097398131
0.096112305
0.10324694
0.1030952
0.10278994
0.10233347
0.10172727
0.10097337
0.1000704
0.099022571
0.097836928
0.09653531
0.10367742
0.10352407
0.10321543
0.102754
0.1021415
0.10138021
0.10047315
0.099424179
0.098238137
0.096929554
0.10407736
0.10392351
0.10361394
0.10315122
0.10253723
0.10177442
0.10085904
0.09980065
0.098605165
0.097278626
0.10442699
0.10427164
0.10395885
0.10349143
0.10287144
0.10210161
0.10118554
0.10012773
0.098933735
0.097609807
0.10474687
0.1045913
0.1042781
0.10381017
0.1031897
0.10241961
0.10150031
0.10043583
0.099235418
0.097905711
0.10502747
0.10487078
0.10455519
0.10408378
0.10345892
0.10268379
0.1017622
0.10069417
0.099490653
0.098158622
0.10526019
0.10510281
0.10478572
0.10431216
0.10368465
0.10290655
0.10198214
0.10091227
0.099702273
0.098364181
0.105443
0.10528457
0.10496519
0.10448826
0.10385647
0.10307339
0.10214355
0.10107259
0.099867323
0.098535241
0.10558623
0.10542807
0.10510928
0.1046333
0.10400294
0.10322186
0.10229476
0.10122741
0.10002525
0.098681864
0.10571003
0.1055503
0.10522807
0.10474699
0.10411008
0.10332125
0.10238544
0.10130875
0.10009846
0.098762617
0.10575455
0.10559538
0.10527427
0.10479496
0.10416049
0.10337486
0.10244313
0.10137149
0.10016733
0.098838782
0.10579557
0.10563695
0.10531698
0.10483941
0.1042058
0.1034115
0.10246998
0.10138773
0.10017243
0.098832516
0.10575566
0.10559563
0.10527247
0.10479017
0.10415201
0.10336227
0.10242633
0.10135072
0.10014314
0.098812077
0.10569131
0.10553212
0.10521069
0.104731
0.10409638
0.10331112
0.10238063
0.10131144
0.10009347
0.098748902
0.10559491
0.10543414
0.10510911
0.10462406
0.10398252
0.10318902
0.1022492
0.10116983
0.099958876
0.098625025
0.10541594
0.10525638
0.1049338
0.10445243
0.10381576
0.10302831
0.1020957
0.10102466
0.099823088
0.098499583
0.10541159
0.10507904
0.10475884
0.10428103
0.10364909
0.10286431
0.10192069
0.10083765
0.099623342
0.098286522
0.10553217
0.10481908
0.10449558
0.10401286
0.10337459
0.10258547
0.10165128
0.10057892
0.099376376
0.098052253
0.10554856
0.10483682
0.10419919
0.10372128
0.10308938
0.10230807
0.10138302
0.10032101
0.099129844
0.097809319
0.10551179
0.10484098
0.10390502
0.10342675
0.10278711
0.10199661
0.10106123
0.099987988
0.098784917
0.097460554
0.10530006
0.10466761
0.10348313
0.1030056
0.10237437
0.10159411
0.10067059
0.099610617
0.098421954
0.097112867
0.10502739
0.1044354
0.1032424
0.10258823
0.10196511
0.10119474
0.10028268
0.09923552
0.098060749
0.096728461
0.10471506
0.10416061
0.10303326
0.10214382
0.10150573
0.10071759
0.09978541
0.098716218
0.097517867
0.096198507
0.10414175
0.10362262
0.10257392
0.10151598
0.10088974
0.10011595
0.099200256
0.098149294
0.096970487
0.095671512
0.10353381
0.10305265
0.10207959
0.10089446
0.10027968
0.099519762
0.098620006
0.097586694
0.096426828
0.095147634
0.10289884
0.10245419
0.10155393
0.10027933
0.09967564
0.098929127
0.098044794
0.097028569
0.095887061
0.094627064
0.10224005
0.10183046
0.10100019
0.099758784
0.099077571
0.098343948
0.097474484
0.096474747
0.095350967
0.094109531
0.10156009
0.10118423
0.10042133
0.099278786
0.098485586
0.097764442
0.096909391
0.095925645
0.094819073
0.0935924
0.10086159
0.10051809
0.099819839
0.09877221
0.097896303
0.097143315
0.09625245
0.095229927
0.094082578
0.092817202
0.099931261
0.099609184
0.098951826
0.097962442
0.097002377
0.096269582
0.095401956
0.094405169
0.093285461
0.092048995
0.098912569
0.098617683
0.098014808
0.097105799
0.096117689
0.095404507
0.094559462
0.093587717
0.092494945
0.091286703
0.097888074
0.097619335
0.097068858
0.096237194
0.095242351
0.094548227
0.093725135
0.092777754
0.09171122
0.090530512
0.096858976
0.09661533
0.096115155
0.095357787
0.094375996
0.093700321
0.092898485
0.091974716
0.09093364
0.089779686
0.095826587
0.095607034
0.095155162
0.094469183
0.093541184
0.092860811
0.092079567
0.091178704
0.090162352
0.089034423
0.094792006
0.094595572
0.094190065
0.093572649
0.092734124
0.092029526
0.091268216
0.090389563
0.089397233
0.088251482
0.093756293
0.093582053
0.093221062
0.092669494
0.091884179
0.091127599
0.090334038
0.089419867
0.088389542
0.087247293
0.092542986
0.092377214
0.092030931
0.091497822
0.090764032
0.090009732
0.089242484
0.088357761
0.087359462
0.086251233
0.091297931
0.091144644
0.090823788
0.090329209
0.089647453
0.088903205
0.088161509
0.087305396
0.086338247
0.085263155
0.090062327
0.089920991
0.089624483
0.089166799
0.088534878
0.087807844
0.087090957
0.086262644
0.085325795
0.08428298
0.088836336
0.088706445
0.088433254
0.088010904
0.087426716
0.086723491
0.086030688
0.085229387
0.084322012
0.083310639
0.087620093
0.087501164
0.087250307
0.086861802
0.086323339
0.08564999
0.084980573
0.084205519
0.083326818
0.082346073
0.086413705
0.086305275
0.086075815
0.085719733
0.085225081
0.084587191
0.083940483
0.083190939
0.082340142
0.081389258
0.085217257
0.085118887
0.084909929
0.084584919
0.084132257
0.083536433
0.08291034
0.082178059
0.081293862
0.080304347
0.084005748
0.083911579
0.08370947
0.08339233
0.082946222
0.082352997
0.081695392
0.080942027
0.080084968
0.079125161
0.082677229
0.082586585
0.082392028
0.082087172
0.081659186
0.081091363
0.080448258
0.079718523
0.078887832
0.077956909
0.081363882
0.081276592
0.081089223
0.080796058
0.080385319
0.07984167
0.07921398
0.078507208
0.077702154
0.076799324
0.0800654
0.079981302
0.079800776
0.079518739
0.079124414
0.078603771
0.077992292
0.077307836
0.076527702
0.075652196
0.07878149
0.078700429
0.078526416
0.078254971
0.077876269
0.077377519
0.076782942
0.076120165
0.075364256
0.074515322
0.077511851
0.077433681
0.07726587
0.07700451
0.076640679
0.076162767
0.075585679
0.074943967
0.074211603
0.073388509
0.076256187
0.07618077
0.076018865
0.075767108
0.07541744
0.07495937
0.074400269
0.073779028
0.073069554
0.072271602
0.075014206
0.074941412
0.074785137
0.074542532
0.074206357
0.073767192
0.073226506
0.072625178
0.071938011
0.071143489
0.073785642
0.07371535
0.073564446
0.073330576
0.073006984
0.072565202
0.072016072
0.071401368
0.070696768
0.069901609
0.07249606
0.07242424
0.072269762
0.072030463
0.071699937
0.071269769
0.070733003
0.070133693
0.069446827
0.068671792
0.071186533
0.07111598
0.070964341
0.070729885
0.070406878
0.069987782
0.069463859
0.068878854
0.068209204
0.067453701
0.069891448
0.069822102
0.06967317
0.069443331
0.06912749
0.068718946
0.068209973
0.067636559
0.066983631
0.066247104
0.068610486
0.068542291
0.068395942
0.068170508
0.067861502
0.067463022
0.066968309
0.066404112
0.065744048
0.064999346
0.067334409
0.067264821
0.067115465
0.066885924
0.066572275
0.066169248
0.065670718
0.065099922
0.064455129
0.063728085
0.065996609
0.065928175
0.065781356
0.065556025
0.065248712
0.064854746
0.064368724
0.063808942
0.063178973
0.062469055
0.0646731
0.064605778
0.064461405
0.064240125
0.0639389
0.063553628
0.063079591
0.062530834
0.061915264
0.061221966
0.063363562
0.063297311
0.063155293
0.062937908
0.062642533
0.062265602
0.061803051
0.061265311
0.060663738
0.059986613
0.062067688
0.062002468
0.061862719
0.061649085
0.061359336
0.06099042
0.060538909
0.059992434
0.059381813
0.058696454
0.060757508
0.060690508
0.060546896
0.060327874
0.060031811
0.059656357
0.059198821
0.058664228
0.058069322
0.057402102
0.059391465
0.059325917
0.059185387
0.058971234
0.058682101
0.058315997
0.05787066
0.057348965
0.056769358
0.056119773
0.058039307
0.057975172
0.057837639
0.057628217
0.057345807
0.056988756
0.056555214
0.056046317
0.055481606
0.054849174
0.05670073
0.05663797
0.056503351
0.056298525
0.056022636
0.055674355
0.05525222
0.054756016
0.054205822
0.053590113
0.055375441
0.055314019
0.055182236
0.054981877
0.054712321
0.054372546
0.053961471
0.053463413
0.05290458
0.052283659
0.054040133
0.053976793
0.053840815
0.053634634
0.053358353
0.053011828
0.052594975
0.052107956
0.051567726
0.050969255
0.052629406
0.052568202
0.052436647
0.052237241
0.051970235
0.051635676
0.051233711
0.050764762
0.050242925
0.04966636
0.051232332
0.051173218
0.05104599
0.050853208
0.05059526
0.050272373
0.049884911
0.049433545
0.048929894
0.048374711
0.049848621
0.04979155
0.049668553
0.049482243
0.049233137
0.048921634
0.048548302
0.048114046
0.047628373
0.047094074
0.048477988
0.048422917
0.048304056
0.048124072
0.047883603
0.04758321
0.047223658
0.04680608
0.04632919
0.045793042
0.04712018
0.047067067
0.046952257
0.046771607
0.04652399
0.046216781
0.04585209
0.045432551
0.044966102
0.044460154
0.045667584
0.045613572
0.04549658
0.045320061
0.045085618
0.044795022
0.044450465
0.044054671
0.043614434
0.043138028
0.044210138
0.044159241
0.04404862
0.043881717
0.043660182
0.043385852
0.043060991
0.042688407