/*--------------------------------*- C++ -*----------------------------------*\
  =========                 |
  \\      /  F ield         | OpenFOAM: The Open Source CFD Toolbox
   \\    /   O peration     | Website:  https://openfoam.org
    \\  /    A nd           | Version:  7
     \\/     M anipulation  |
\*---------------------------------------------------------------------------*/
FoamFile
{
    version     2.0;
    format      ascii;
    class       volScalarField;
    location    "80000";
    object      YH2;
}
// * * * * * * * * * * * * * * * * * * * * * * * * * * * * * * * * * * * * * //

dimensions      [0 0 0 0 0 0 0];

internalField   nonuniform List<scalar> 
87000
(
0.11163366
0.1116336
0.11163346
0.11163316
0.11163252
0.1116309
0.11162566
0.11160078
0.1113373
0.10485862
0.11163122
0.11163094
0.11162989
0.11162763
0.11162267
0.11161051
0.11157585
0.11142875
0.11046588
0.1017839
0.11162497
0.11162401
0.11162056
0.11161328
0.1115978
0.11156274
0.11146514
0.11109099
0.10926607
0.099277607
0.11161255
0.11160994
0.11160185
0.11158533
0.11155209
0.11147464
0.11126063
0.11057138
0.10784669
0.097227686
0.11159135
0.1115856
0.11157031
0.11154055
0.11147702
0.11133451
0.11096312
0.10988128
0.10636244
0.095690439
0.1115583
0.1115481
0.11152337
0.11147244
0.11137006
0.111131
0.11057081
0.10907642
0.10492366
0.094563139
0.1115101
0.11149501
0.11145745
0.11137911
0.11121769
0.11087026
0.11009208
0.10819405
0.10358073
0.093690395
0.11144472
0.11142496
0.11136874
0.11125969
0.11102142
0.11055062
0.10953976
0.10727021
0.10234499
0.09296278
0.1113601
0.11133304
0.11125667
0.11109978
0.1107849
0.11017565
0.1089181
0.10633607
0.1012183
0.092337442
0.11125486
0.11121788
0.11112086
0.1109032
0.11050604
0.10975071
0.10826458
0.105412
0.10019486
0.091791517
0.11112836
0.11107896
0.11095298
0.11067577
0.11018625
0.10928133
0.10758127
0.10450786
0.099257745
0.091294755
0.11097388
0.11091586
0.11074578
0.11041445
0.109828
0.10877385
0.10687817
0.10362958
0.098393016
0.090831935
0.11079165
0.11072847
0.11050952
0.11011921
0.10943325
0.10823343
0.10616134
0.1027768
0.097585117
0.090389495
0.11058233
0.11051566
0.11024503
0.10979
0.10900333
0.10764916
0.10544011
0.10195329
0.09682857
0.089966086
0.11034812
0.11025916
0.10995069
0.10942864
0.10854231
0.10705892
0.10471953
0.10116157
0.096120206
0.089563203
0.11008883
0.10996868
0.10962557
0.10903648
0.10805313
0.10645064
0.10400084
0.100397
0.095449767
0.089173429
0.10980328
0.10964564
0.10927035
0.10861454
0.10753807
0.10582729
0.10328561
0.099656585
0.094810442
0.08879321
0.1094924
0.10930165
0.10888526
0.10816413
0.10699918
0.10519131
0.10257475
0.098937544
0.094196692
0.088419352
0.10915248
0.10892767
0.10847099
0.10768633
0.10643832
0.10454436
0.10186856
0.098237293
0.093603953
0.08804963
0.10878415
0.10852634
0.10802815
0.1071819
0.10585701
0.10388616
0.10116443
0.097550426
0.093025457
0.087678973
0.10838768
0.10809574
0.10755696
0.10665075
0.10523132
0.10322307
0.10046669
0.096879046
0.092462379
0.087310454
0.10796508
0.10763572
0.10705858
0.10609709
0.10461552
0.10255637
0.099778644
0.096225894
0.09191727
0.086948289
0.10749544
0.10714667
0.10653412
0.10552201
0.10398521
0.10188456
0.099096572
0.095585996
0.091384802
0.086588518
0.10699376
0.10662988
0.10598439
0.10492634
0.10334132
0.10120822
0.098419337
0.094956942
0.09086218
0.086229165
0.10646254
0.10608551
0.10541005
0.10431097
0.10268479
0.10052781
0.0977464
0.094336947
0.090347481
0.085869632
0.10590234
0.10551424
0.10481187
0.10367691
0.10201642
0.09984386
0.097077208
0.093724672
0.089839125
0.085509313
0.10531412
0.10491678
0.10419052
0.10302494
0.10133713
0.09915654
0.096411325
0.093118964
0.089335621
0.085147252
0.10469904
0.10429373
0.10354739
0.10235619
0.10064754
0.09846601
0.095747993
0.092518643
0.088836
0.084782842
0.10405793
0.1036464
0.1028828
0.10167147
0.099948327
0.097772351
0.095086777
0.091922751
0.088339347
0.084415811
0.10338922
0.10297515
0.10219816
0.10097186
0.099240129
0.097075766
0.094427316
0.091330474
0.087844841
0.08404604
0.10269276
0.10228189
0.10149471
0.10025826
0.098523552
0.096376392
0.093769135
0.090740981
0.087351482
0.083672965
0.10197342
0.10156748
0.10077369
0.099531707
0.09779911
0.09567426
0.093111544
0.090153303
0.086858488
0.083296087
0.10123276
0.10083355
0.1000365
0.098793059
0.097067247
0.094969231
0.092454362
0.089567077
0.08636542
0.082915247
0.10047467
0.10008218
0.099284182
0.09804323
0.096328547
0.094261469
0.091797339
0.088981817
0.0858719
0.082530468
0.099710041
0.09931559
0.098518035
0.097283252
0.09558359
0.093551026
0.091139941
0.088396666
0.085377051
0.082141244
0.098942695
0.098534979
0.097739218
0.096513958
0.094832856
0.092837913
0.090481716
0.087811134
0.084880497
0.081747292
0.098159986
0.097741377
0.096948877
0.095736149
0.094076552
0.092122214
0.089822754
0.087225162
0.084382165
0.081348731
0.097352245
0.096935119
0.096147933
0.094950777
0.093315278
0.091403979
0.08916285
0.086638358
0.083881681
0.080945362
0.096521311
0.096116345
0.095337242
0.094158485
0.092549608
0.090683475
0.088501607
0.086049975
0.083378289
0.080536755
0.095676674
0.095284263
0.09451744
0.093359851
0.091779606
0.089960521
0.087838904
0.085460037
0.08287209
0.080122981
0.094824934
0.094439797
0.093689871
0.092555466
0.091005887
0.089235316
0.08717479
0.084868605
0.082363146
0.079704367
0.093965182
0.093586323
0.09285475
0.091746157
0.090228916
0.088508232
0.086509212
0.08427529
0.081851114
0.079280702
0.093098579
0.092724354
0.092012571
0.090932871
0.08944903
0.087779493
0.085842594
0.083680449
0.081336261
0.078852297
0.092227453
0.091855824
0.091164841
0.090115732
0.088667281
0.087049768
0.085175247
0.083084483
0.080819055
0.078419603
0.091352498
0.090983634
0.090312894
0.089296932
0.087885262
0.086323767
0.084512225
0.082492077
0.080303715
0.077986341
0.090477156
0.090112469
0.089462031
0.08848338
0.087207265
0.085588812
0.083843989
0.081895372
0.079783882
0.077547487
0.089600609
0.089239933
0.088608333
0.087662434
0.086425072
0.084849658
0.083167617
0.081289629
0.079254353
0.077098077
0.088721933
0.08836509
0.087751948
0.086838633
0.085642315
0.084111095
0.082490217
0.080681119
0.078720272
0.076642404
0.087842064
0.087489166
0.086894378
0.086014071
0.084859811
0.08337296
0.081812604
0.080071168
0.078183176
0.076181893
0.086962457
0.086613172
0.086037086
0.085190157
0.084078322
0.082635733
0.081135447
0.079460493
0.077643983
0.075717464
0.086089095
0.085738525
0.085181577
0.084367965
0.083298807
0.081900657
0.080462555
0.078853776
0.077107188
0.075253325
0.085242811
0.084868593
0.084331534
0.083553334
0.082529488
0.081298746
0.079781129
0.078241223
0.076565183
0.074783622
0.084400846
0.084002801
0.083484983
0.082740044
0.081756179
0.080570737
0.079098565
0.077622191
0.076014618
0.07430427
0.083561815
0.083140058
0.082640784
0.081928092
0.080983493
0.079845412
0.078419001
0.077004149
0.075462787
0.073821466
0.082729575
0.082282573
0.081799997
0.08111773
0.080214061
0.079123667
0.077742981
0.076390629
0.074914605
0.073340513
0.081907982
0.081432794
0.080965971
0.080314361
0.079454163
0.078413549
0.077220061
0.075768984
0.074360497
0.072854132
0.081095177
0.080590004
0.080139848
0.079516148
0.078696562
0.077700199
0.076554793
0.075148953
0.073804532
0.072363971
0.080291014
0.079754647
0.079320864
0.078724264
0.07794515
0.0769943
0.075901526
0.074687794
0.073239704
0.071866396
0.079494756
0.078926847
0.078508829
0.077938378
0.077198042
0.076289851
0.075244706
0.074080412
0.072676678
0.071364887
0.0787066
0.078106252
0.077704608
0.077157996
0.076455149
0.075588707
0.074590734
0.073478805
0.072117887
0.070864326
0.077929061
0.077294013
0.076908983
0.076384803
0.075716308
0.07489409
0.073943565
0.072884703
0.071735734
0.070358155
0.07716312
0.076491037
0.076122537
0.075620219
0.074984979
0.074206503
0.073301879
0.07229405
0.071198015
0.070031147
0.076408361
0.075699242
0.075345469
0.074864232
0.074261125
0.073524799
0.072664245
0.071704414
0.070659457
0.069544241
0.075665352
0.074934361
0.074578217
0.074118143
0.073545021
0.072849402
0.072031541
0.071118426
0.070124221
0.069062107
0.074935338
0.074180448
0.073821279
0.073382981
0.072836933
0.072177321
0.071403907
0.070535632
0.069589746
0.068578313
0.074220027
0.073439019
0.073078041
0.072659012
0.072139292
0.071514482
0.070785181
0.069961157
0.069062546
0.068101668
0.073519038
0.072710863
0.072350385
0.071949633
0.071453584
0.070862858
0.070176788
0.069396069
0.068543775
0.067631636
0.072830391
0.071994916
0.07163474
0.071252235
0.070777972
0.07021966
0.069570584
0.068835329
0.068026699
0.067159812
0.072153468
0.071298834
0.070930714
0.070565496
0.070114076
0.069584192
0.068970198
0.068277858
0.067510379
0.06668636
0.071487565
0.070699803
0.070237791
0.069888751
0.069459655
0.068955674
0.068374724
0.06771988
0.066994547
0.066211049
0.070829687
0.070105479
0.069555433
0.069221556
0.068814261
0.068333908
0.067784144
0.067163672
0.066479583
0.065734602
0.070159197
0.069515546
0.068888014
0.068565636
0.068179131
0.067719398
0.067198454
0.066610559
0.065962511
0.065257772
0.069500087
0.068931023
0.068249788
0.067921621
0.067551642
0.067113994
0.066617723
0.066060814
0.06544614
0.064780702
0.068851938
0.068351844
0.067619477
0.067285916
0.066931572
0.066514833
0.066042012
0.065514568
0.064931695
0.064299832
0.06821431
0.067777841
0.066996842
0.06665826
0.066318747
0.065924261
0.065472459
0.064972002
0.064419488
0.063819755
0.067586804
0.067209109
0.06638178
0.06603851
0.065713097
0.065340795
0.064910339
0.064433176
0.063909643
0.063340637
0.066969006
0.066645464
0.065774047
0.065426413
0.065119706
0.064763187
0.064353036
0.063898101
0.063402217
0.062862576
0.066360643
0.066087703
0.065267541
0.064830822
0.06453337
0.064191369
0.063803505
0.06337006
0.062897218
0.06238563
0.065761691
0.065536175
0.064783826
0.064261621
0.06395356
0.063625345
0.063259289
0.062845957
0.062394754
0.061909905
0.065171918
0.064990204
0.064300557
0.063697968
0.063380108
0.063067732
0.062719616
0.062327088
0.061898082
0.061435342
0.064590886
0.064446949
0.063817327
0.063139633
0.062812774
0.062518843
0.062184302
0.061813599
0.06140403
0.060962521
0.064018024
0.063882124
0.063333953
0.062586366
0.062251342
0.061974728
0.061653106
0.061303084
0.060913625
0.060493831
0.063452765
0.063324692
0.062850746
0.062069332
0.061726109
0.061435142
0.061129793
0.060795308
0.060427156
0.060025818
0.062894885
0.062774414
0.062368844
0.061654038
0.061204125
0.06089988
0.06061231
0.060290134
0.059942125
0.059560874
0.062344103
0.062231022
0.061887756
0.061233635
0.060684957
0.060368668
0.060097809
0.059788928
0.059458348
0.059097466
0.061799776
0.061693748
0.061406348
0.060807541
0.060168314
0.059860983
0.059585986
0.059294674
0.058975569
0.058633919
0.061261231
0.061161886
0.060924305
0.060376021
0.059659691
0.0593672
0.059076468
0.05880165
0.058494565
0.058169962
0.060727875
0.060634838
0.060441532
0.059940342
0.059283971
0.058874063
0.058568918
0.05830955
0.058019408
0.057705347
0.060199162
0.060112072
0.059931235
0.059500267
0.058898349
0.058381053
0.058088127
0.057818076
0.057543787
0.057241817
0.059674223
0.059592694
0.059423522
0.059054939
0.058502441
0.057887735
0.057613478
0.057326677
0.057067236
0.056781269
0.059152238
0.059075907
0.058917594
0.058603833
0.058096934
0.057475978
0.057136822
0.056844181
0.056589293
0.056318299
0.058632417
0.058560944
0.058412752
0.058147209
0.057682279
0.057110326
0.056657678
0.056382668
0.056109481
0.055852457
0.058113831
0.058046886
0.057908111
0.057684676
0.057257716
0.056730088
0.056175366
0.055916682
0.055627733
0.055383134
0.057595369
0.057532607
0.057402482
0.057206899
0.056822238
0.056335472
0.055763101
0.0554458
0.055173267
0.054909714
0.05707586
0.05701695
0.056894755
0.056711101
0.056376084
0.055927072
0.055396586
0.054969317
0.05471181
0.054431409
0.056554019
0.056498647
0.056383734
0.056211064
0.055918775
0.055503735
0.055010902
0.054486202
0.054242649
0.053973823
0.056028422
0.05597628
0.055868015
0.055705351
0.055449157
0.055064444
0.054606469
0.054081477
0.053765094
0.05350992
0.055497532
0.055448335
0.055346133
0.055192577
0.054966538
0.054609056
0.054182928
0.053692179
0.053277951
0.053035315
0.054959603
0.054913076
0.054816373
0.054671063
0.054469627
0.054136479
0.053738864
0.053278843
0.05278001
0.052548916
0.054412615
0.054368488
0.054276728
0.054138805
0.053954791
0.05364508
0.053272774
0.052841169
0.052354537
0.052049531
0.053854409
0.053812423
0.053725072
0.053593707
0.053418391
0.053133663
0.052784046
0.052378191
0.05191864
0.051535525
0.053282676
0.0532426
0.053159186
0.05303369
0.052866147
0.052600801
0.052271204
0.051888074
0.05145248
0.051005265
0.052694642
0.052656241
0.052576274
0.052455909
0.052295143
0.052043774
0.051731748
0.051368613
0.050954746
0.050493701
0.052087396
0.052050448
0.051973477
0.05185757
0.051702676
0.051460441
0.051163821
0.050818279
0.050423971
0.049983315
0.051457757
0.051422057
0.051347658
0.051235576
0.051084111
0.050848188
0.050565026
0.050234889
0.049857735
0.049434986
0.050802254
0.050767607
0.050695376
0.050586489
0.050430184
0.050204102
0.049932659
0.049615897
0.049253647
0.048846652
0.050117212
0.050083433
0.050012988
0.049906712
0.04974282
0.049525234
0.049263898
0.048958686
0.048609328
0.048216159
0.049398833
0.049365753
0.049296731
0.049186749
0.049018792
0.048808522
0.048555882
0.048260622
0.047922395
0.047541354
0.048643219
0.048610666
0.048539826
0.048417905
0.048254981
0.048051043
0.047805888
0.047519214
0.047190618
0.046820241
0.04784243
0.047804521
0.047725789
0.04760714
0.047448651
0.047250189
0.047011521
0.046732305
0.0464121
0.046051201
0.046981675
0.046944694
0.046867899
0.046752188
0.046597573
0.046403904
0.046170928
0.045898285
0.045585521
0.045233209
0.046075703
0.046039584
0.045964542
0.045851439
0.045700279
0.045510905
0.045283055
0.04501637
0.044710401
0.044366134
0.045123861
0.045088529
0.045015092
0.044904395
0.044756439
0.044571067
0.044348024
0.044086963
0.043787574
0.043469066
0.044126931
0.044092364
0.044020491
0.043912146
0.043767333
0.043585909
0.043367636
0.043112202
0.042819734
0.042571157
0.043087595
0.043053815
0.042983561
0.04287766
0.042736128
0.042558848
0.042345617
0.04209617
0.041811143
0.041632879
0.042010777
0.041977853
0.041909367
0.041806138
0.041668203
0.041495477
0.041287803
0.041045124
0.040800598
0.040656035
0.040903955
0.040872002
0.040805528
0.040705347
0.040571524
0.040404012
0.040202715
0.039967869
0.039785348
0.039643897
0.039777151
0.03974632
0.039682179
0.039585535
0.03945648
0.039295017
0.039101111
0.038875225
0.038739265
0.038601384
0.038642749
0.038613217
0.03855178
0.038459232
0.038335697
0.038181222
0.03799586
0.037788092
0.037668939
0.037535195
0.037514967
0.037486918
0.037428572
0.037340702
0.037223459
0.037076935
0.036901219
0.036697564
0.036582642
0.036453671
0.036408788
0.036382392
0.036327486
0.036244818
0.036134556
0.035996828
0.035831763
0.03563973
0.035490048
0.035366472
0.035338613
0.035313998
0.035262799
0.035185725
0.035082956
0.034954637
0.034800928
0.034622011
0.034418203
0.034284045
0.034316754
0.03429399
0.034246636
0.034175356
0.034080327
0.033961702
0.033819647
0.033654351
0.033466029
0.033254942
0.03335209
0.033331177
0.033287664
0.033222164
0.033134843
0.033025846
0.03289533
0.032743475
0.032570482
0.032376579
0.032449148
0.032430017
0.032390196
0.032330244
0.032250307
0.032150512
0.032030994
0.031891906
0.031733418
0.031555719
0.031608178
0.031590702
0.0315543
0.031499481
0.031426368
0.031335063
0.031225673
0.031098314
0.030953117
0.030790225
0.030825931
0.030809938
0.030776599
0.030726373
0.03065936
0.030575636
0.030475273
0.030358352
0.030224961
0.030075194
0.030097101
0.030082405
0.030051735
0.0300055
0.029943787
0.029866646
0.029774121
0.029666258
0.029543104
0.029404708
0.029419026
0.029403828
0.029373604
0.029330812
0.029273677
0.029202235
0.029116455
0.029016409
0.02890212
0.028773583
0.028824546
0.028810344
0.028780807
0.028736282
0.028676796
0.02860234
0.028512882
0.028408373
0.028296785
0.028176647
0.028269926
0.028256579
0.028228801
0.028186916
0.028130938
0.028060837
0.027976562
0.027878043
0.027765207
0.027637964
0.027749069
0.027736455
0.027710172
0.0276705
0.027617467
0.027551035
0.027471145
0.02737772
0.027270657
0.027149833
0.027256707
0.027244703
0.027219685
0.027181943
0.027131476
0.027068239
0.026992166
0.026903091
0.026800906
0.026685537
0.026789269
0.026777781
0.026753822
0.026717671
0.026669325
0.026608734
0.026535827
0.026450511
0.026352678
0.026242182
0.026343974
0.026332925
0.026309867
0.026275071
0.02622853
0.026170194
0.026099987
0.026017814
0.025923564
0.025817085
0.025918261
0.025907614
0.025885384
0.025851831
0.025806948
0.025750683
0.025682821
0.025603344
0.025512171
0.025409151
0.025510632
0.025500313
0.025478756
0.025446215
0.025402684
0.02534811
0.025282417
0.025205511
0.025117268
0.025017242
0.025119889
0.025109853
0.025088878
0.025057214
0.025014854
0.024961746
0.024897815
0.024822967
0.024737093
0.024640042
0.024744929
0.024735174
0.024714708
0.024683807
0.024642466
0.024590636
0.024528241
0.024455191
0.024371379
0.024276656
0.024384183
0.024374655
0.024354725
0.024324638
0.024284387
0.024233925
0.024172925
0.02410145
0.024019447
0.023926769
0.024037258
0.024027925
0.024008399
0.023978921
0.023939486
0.023890047
0.02383054
0.02376088
0.023680626
0.02358981
0.023703434
0.023694273
0.023675103
0.023646163
0.023607446
0.023558911
0.023500492
0.023432109
0.023353669
0.023264884
0.023382084
0.023373074
0.023354219
0.023325752
0.02328767
0.02323993
0.023182471
0.023115214
0.023038069
0.022950909
0.023072376
0.02306351
0.023044953
0.023016939
0.022979465
0.022932495
0.022875969
0.022809752
0.022733747
0.022647877
0.022776383
0.022767292
0.022748293
0.022719619
0.022681976
0.022635618
0.022579833
0.022514549
0.022439687
0.022355129
0.022491024
0.022482047
0.022463285
0.022434969
0.022397101
0.022349646
0.022294092
0.022229562
0.022155567
0.022071993
0.022214759
0.022205902
0.022187389
0.022159451
0.022122093
0.022075283
0.022018975
0.021954347
0.021881315
0.021798715
0.021947458
0.021938689
0.021920359
0.021892696
0.021855707
0.02180936
0.021753611
0.021688401
0.021615073
0.021533328
0.021688617
0.021679952
0.021661838
0.021634504
0.021597956
0.021552169
0.021497102
0.021432574
0.021358466
0.02127679
0.021437199
0.021428601
0.021410623
0.021383487
0.021347201
0.02130174
0.021247064
0.021183122
0.021109854
0.021027406
0.021294285
0.02125772
0.021183248
0.021140535
0.02110463
0.021059649
0.021005503
0.020941915
0.02086905
0.020786814
0.021208512
0.021171747
0.0210969
0.020984257
0.020867642
0.020822841
0.020768972
0.02070599
0.020633839
0.020552434
0.021124152
0.021087276
0.021012211
0.020899278
0.020748262
0.020593821
0.020540438
0.020477902
0.020405925
0.020324718
0.021038127
0.021001279
0.020926016
0.020812819
0.020661497
0.020471828
0.02031568
0.020253351
0.020181998
0.020101522
0.020948748
0.020912478
0.020838706
0.020726203
0.020575065
0.020385602
0.020157698
0.020036182
0.019965429
0.019885483
0.020859112
0.020822744
0.020748779
0.020637714
0.020487476
0.020298207
0.020070492
0.019823115
0.019752442
0.019672836
0.020766679
0.020730281
0.02065626
0.020545133
0.020396963
0.020208458
0.01998148
0.019716363
0.019543813
0.019464427
0.020671575
0.020635252
0.020561397
0.020450538
0.020302653
0.020116595
0.019890634
0.019626571
0.019339328
0.019260137
0.020573364
0.020537086
0.02046332
0.020352617
0.020205089
0.020020847
0.019797192
0.019535094
0.019235261
0.01905979
0.020472583
0.020436374
0.020362745
0.020252269
0.020105087
0.019921349
0.019700209
0.019440228
0.019143079
0.018863061
0.020369394
0.020333271
0.020259814
0.020149616
0.020002847
0.019819694
0.019600403
0.019342681
0.019048066
0.018717421
0.020262417
0.020226505
0.020153486
0.02004396
0.019898116
0.019716155
0.019497772
0.0192428
0.018951098
0.018623693
0.020151986
0.02011622
0.020043488
0.019934413
0.019789213
0.019608136
0.019391508
0.019139548
0.018851749
0.018528113
0.020039494
0.020003886
0.01993147
0.01982289
0.019678394
0.019498276
0.019282902
0.019032765
0.01874837
0.018429054
0.019923138
0.019887834
0.019816042
0.019708411
0.019565206
0.019386736
0.019173015
0.018924615
0.018643304
0.01832816
0.019803414
0.019768333
0.019696984
0.01959004
0.019447798
0.019270613
0.019058931
0.018813336
0.018535582
0.018225546
0.019682452
0.0196476
0.019576704
0.019470466
0.019329218
0.019153363
0.018943409
0.018699998
0.018424715
0.018119032
0.019555595
0.019521161
0.019451116
0.019346164
0.019206648
0.019032987
0.018825703
0.01858545
0.018313023
0.018011583
0.019427648
0.019393504
0.019324036
0.019219972
0.019081697
0.018909674
0.018704489
0.018466864
0.018197714
0.017900921
0.01929557
0.019261902
0.019193402
0.019090798
0.018954481
0.018784927
0.01858273
0.018347976
0.018081919
0.017788345
0.019160413
0.019127084
0.019059255
0.018957681
0.018822787
0.018655097
0.018455264
0.01822409
0.017962563
0.017673414
0.01902247
0.018989669
0.018922912
0.018822951
0.018690218
0.01852524
0.018327991
0.018099487
0.017841212
0.017555275
0.018879825
0.018847392
0.018781357
0.018682498
0.018551278
0.018388269
0.018194182
0.017969888
0.017716433
0.017435346
0.0187352
0.018703335
0.018638451
0.018541323
0.018412416
0.018252302
0.018060456
0.017838773
0.017588458
0.017310706
0.018584864
0.018553364
0.018489192
0.018393141
0.018265704
0.018107486
0.017919244
0.017701896
0.017456534
0.017184342
0.018432607
0.018401696
0.018338719
0.018244463
0.018119421
0.017964201
0.017778944
0.017564449
0.017322436
0.017054113
0.018276689
0.018246179
0.018183986
0.018090911
0.017967461
0.017814261
0.017632048
0.017420818
0.017182566
0.016918507
0.018115482
0.018085428
0.018024137
0.017932414
0.017810773
0.017659846
0.017480416
0.017272584
0.017037224
0.016776433
0.017948644
0.017918952
0.017858358
0.017767674
0.017647419
0.017498228
0.017320891
0.01711636
0.016885765
0.016630312
0.017778049
0.017748929
0.017689496
0.017600554
0.017482619
0.017336325
0.017162459
0.016961968
0.01673568
0.01648205
0.017607394
0.017578496
0.017519458
0.017431097
0.017313931
0.017168597
0.016995881
0.016796728
0.016572253
0.016323659
0.017426189
0.017397834
0.017339898
0.01725319
0.017138226
0.016995637
0.016826206
0.016630872
0.01641074
0.016166998
0.017247618
0.017219787
0.017162917
0.017077806
0.0169647
0.016822707
0.016653983
0.01645946
0.016240233
0.015997482
0.017058769
0.017031085
0.016974449
0.016889673
0.016777269
0.016637866
0.016472233
0.016281295
0.016066134
0.015827916
0.016868985
0.016841797
0.016786167
0.016702901
0.016592504
0.0164556
0.01629295
0.016105462
0.015891158
0.015653397
0.016677214
0.016650111
0.016594591
0.016511475
0.016401278
0.016264622
0.016102269
0.015915127
0.015704258
0.015470802
0.016475485
0.016448864
0.016394323
0.016312671
0.016204416
0.016070171
0.015910688
0.01572686
0.015519731
0.01529042
0.016305985
0.016250599
0.016197
0.016116759
0.016010374
0.015877967
0.015718494
0.015534726
0.015327712
0.015098575
0.016162018
0.016042971
0.015989408
0.015909214
0.0158029
0.015671083
0.015514513
0.015334076
0.015130797
0.014905772
0.016004415
0.015885688
0.015779678
0.015700922
0.015596518
0.015467065
0.015313292
0.015136066
0.014936384
0.014714093
0.01584074
0.015728967
0.015572982
0.015494912
0.0153904
0.01526087
0.015107087
0.014929947
0.014730475
0.014509758
0.015653977
0.015548768
0.015351129
0.015273845
0.015171418
0.015044455
0.014893693
0.014719999
0.014524362
0.01430783
0.01546011
0.015361708
0.01516261
0.015055868
0.014955445
0.014830955
0.014683104
0.014512729
0.014320782
0.014103678
0.015262164
0.015170118
0.014982534
0.014836904
0.014735485
0.014609919
0.014461006
0.01428968
0.014096987
0.013884017
0.015030649
0.014944752
0.014770546
0.014596515
0.014497671
0.014375262
0.01423004
0.014062888
0.013874794
0.013666786
0.014795684
0.014716229
0.014554885
0.014359318
0.01426296
0.014143598
0.014001939
0.013838819
0.01365517
0.01345196
0.014558338
0.014485074
0.014336097
0.014125266
0.014031309
0.013914889
0.013776672
0.013617448
0.013438096
0.013239527
0.01431908
0.014251758
0.014114668
0.013909432
0.013802651
0.013689062
0.013554163
0.013398695
0.013223488
0.013029398
0.014078304
0.014016696
0.01389104
0.01370263
0.013576957
0.013466105
0.013334415
0.013182582
0.013011387
0.012821299
0.013836384
0.013780255
0.013665568
0.013493306
0.013353761
0.013240456
0.013106319
0.01295227
0.012779324
0.012588512
0.013567785
0.013515799
0.013409185
0.013248613
0.013096707
0.012987542
0.012858233
0.012709625
0.01254265
0.012358249
0.013289744
0.013242546
0.01314553
0.012999128
0.012842755
0.012737606
0.012612983
0.01246966
0.012308489
0.012130328
0.013012218
0.012969623
0.01288184
0.012749077
0.012591883
0.012490633
0.01237056
0.01223237
0.012076842
0.01190475
0.012735371
0.012697197
0.012618281
0.012498623
0.012343997
0.012246522
0.012130855
0.011997641
0.011847584
0.011681384
0.012459391
0.012425462
0.012355063
0.012248003
0.012102986
0.012005237
0.011893841
0.011765451
0.011620704
0.011460226
0.012184425
0.012154572
0.012092354
0.011997396
0.011868188
0.011766716
0.011659456
0.011535744
0.01139615
0.011237584
0.011910619
0.01188468
0.011830319
0.01174699
0.011629696
0.011523015
0.011414975
0.011290902
0.011151588
0.010997823
0.011624452
0.01160068
0.011550397
0.011472622
0.011365079
0.011259476
0.011156925
0.011039067
0.010906611
0.010760259
0.011337643
0.01131618
0.011270601
0.011199946
0.011102004
0.01099881
0.010901593
0.010789776
0.010663991
0.010524856
0.011053402
0.011034154
0.010993086
0.010929259
0.010840528
0.010740968
0.010648933
0.010542989
0.010423695
0.010291588
0.010771737
0.010754613
0.010717872
0.010660595
0.010580699
0.010485903
0.010398903
0.01029867
0.01018569
0.010060429
0.010492649
0.010477563
0.010444973
0.01039398
0.010322561
0.010233566
0.010151461
0.010056781
0.0099499468
0.0098313526
0.010216134
0.010203004
0.010174398
0.010129434
0.010066151
0.0099839128
0.0099065642
0.0098172855
0.009716434
0.0096043365
0.0099421855
0.0099309317
0.0099061494
0.0098669739
0.0098114995
0.0097371594
0.0096641754
0.0095797476
0.0094815565
0.0093724617
0.0096709253
0.0096613077
0.0096396936
0.0096049025
0.0095546337
0.0094858866
0.009413647
0.0093320871
0.0092398998
0.0091374293
0.0094032053
0.0093943567
0.0093743718
0.0093421874
0.0092956915
0.0092321292
0.0091632871
0.0090869287
0.0090005847
0.0089045636
0.0091385469
0.0091304347
0.0091120096
0.0090823203
0.0090394334
0.0089808282
0.0089155225
0.0088442261
0.0087635701
0.0086738291
0.0088768931
0.0088694861
0.0088525551
0.0088252543
0.0087858207
0.008731956
0.008670307
0.0086039373
0.008528819
0.0084451942
0.0086181853
0.0086114542
0.0085959546
0.0085709413
0.0085348131
0.0084854831
0.0084275938
0.0083660198
0.0082962938
0.0082186266
0.0083623636
0.0083562805
0.0083421531
0.0083193319
0.0082863691
0.0082413789
0.008187336
0.0081304313
0.0080659572
0.0079940944
0.0081093677
0.0081039062
0.0080910952
0.0080703756
0.0080404457
0.0079996109
0.0079494868
0.0078971298
0.0078377721
0.0077715663
0.007859138
0.0078542733
0.0078427258
0.0078240224
0.0077970003
0.0077601468
0.0077140008
0.0076660742
0.0076117025
0.0075510588
0.0076116155
0.0076073241
0.0075969902
0.0075802224
0.007556002
0.007523579
0.0074817777
0.0074383334
0.0073886733
0.0073328462
0.0073713534
0.0073676798
0.0073586439
0.0073438426
0.007322245
0.0072925003
0.0072535657
0.0072136167
0.007167968
0.0071166751
0.0071358492
0.0071325319
0.007124263
0.0071107089
0.0070909491
0.0070637774
0.0070277982
0.0069911357
0.0069493944
0.0069025164
0.0069029206
0.0068999467
0.0068924169
0.0068800635
0.006862071
0.0068373709
0.0068047343
0.0067708501
0.006732915
0.006690336
0.0066725129
0.0066698701
0.0066630529
0.0066518559
0.0066355636
0.0066132384
0.0065838102
0.0065528561
0.0065197974
0.006482454
0.0064452428
0.0064431033
0.0064373719
0.0064278762
0.0064139627
0.0063947621
0.0063692639
0.0063417488
0.0063118431
0.0062781152
0.0062260408
0.0062241837
0.0062190569
0.0062105335
0.006198034
0.0061807862
0.0061578973
0.0061327351
0.0061059034
0.0060756974
0.0060091671
0.0060075835
0.0060030423
0.0059954595
0.0059843262
0.0059689626
0.0059485879
0.0059257829
0.0059019471
0.0058751713
0.0057945742
0.0057932558
0.0057892817
0.0057826093
0.0057727965
0.0057592512
0.0057412993
0.0057208523
0.0056999359
0.0056764977
0.0055822112
0.0055811499
0.0055777255
0.0055719343
0.0055633979
0.0055516077
0.0055359894
0.0055194798
0.0055031845
0.0054848337
0.0053742229
0.0053736417
0.0053712556
0.0053670774
0.0053607706
0.005351871
0.0053398407
0.0053254931
0.0053116978
0.0052962242
0.0051738432
0.0051735008
0.0051716205
0.0051682407
0.0051630689
0.005155699
0.0051456638
0.0051333856
0.0051220322
0.0051093663
0.0049755037
0.0049753939
0.0049740058
0.0049714024
0.0049673332
0.0049614471
0.0049533439
0.00494313
0.0049341607
0.0049242339
0.0047791635
0.0047792802
0.0047783714
0.0047765233
0.0047735254
0.0047690788
0.0047628469
0.0047546899
0.0047480469
0.0047407867
0.0045847776
0.0045851151
0.0045846731
0.0045835597
0.0045816022
0.0045785515
0.0045741294
0.0045695416
0.0045675525
0.0045655532
0.0043942261
0.0043950648
0.0043957068
0.0043962627
0.0043965862
0.0043964566
0.0043956181
0.0043938077
0.0043936974
0.0043940782
0.0042129067
0.0042139585
0.0042150468
0.0042162951
0.0042175814
0.0042187177
0.0042194879
0.0042196742
0.0042214446
0.0042241555
0.0040333616
0.0040346216
0.0040361458
0.0040380701
0.004040296
0.0040426663
0.0040450023
0.0040471293
0.004050779
0.0040557689
0.0038555568
0.0038570204
0.0038589709
0.0038615557
0.0038646987
0.0038682721
0.0038721327
0.0038761464
0.0038816717
0.0038888883
0.0036794544
0.0036811172
0.0036834846
0.0036867148
0.0036907527
0.0036954981
0.003700841
0.0037066831
0.00371525
0.0037280845
0.0035050148
0.0035068722
0.0035096464
0.00351416
0.0035206482
0.0035285019
0.0035376223
0.0035479107
0.003560136
0.0035749599
0.0033418462
0.0033442481
0.0033481975
0.0033538481
0.0033611716
0.0033701002
0.0033805544
0.003392459
0.0034063872
0.0034231689
0.0031818511
0.0031844414
0.0031887819
0.0031950311
0.0032031721
0.0032131525
0.0032249116
0.0032383956
0.0032540141
0.0032727163
0.0030233572
0.0030261322
0.003030856
0.0030376917
0.0030466332