/*--------------------------------*- C++ -*----------------------------------*\
  =========                 |
  \\      /  F ield         | OpenFOAM: The Open Source CFD Toolbox
   \\    /   O peration     | Website:  https://openfoam.org
    \\  /    A nd           | Version:  7
     \\/     M anipulation  |
\*---------------------------------------------------------------------------*/
FoamFile
{
    version     2.0;
    format      ascii;
    class       volScalarField;
    location    "80000";
    object      YO;
}
// * * * * * * * * * * * * * * * * * * * * * * * * * * * * * * * * * * * * * //

dimensions      [0 0 0 0 0 0 0];

internalField   nonuniform List<scalar> 
87000
(
4.1138094e-26
4.6982253e-26
6.2436673e-26
9.5857252e-26
1.8001939e-25
5.6577213e-25
7.5081561e-22
2.2619876e-17
3.8225429e-08
4.6717578e-09
2.4434181e-25
2.6551685e-25
3.4724516e-25
4.3720164e-25
5.1105046e-24
8.3520746e-20
4.1306658e-18
4.1419243e-13
4.2084511e-10
3.7258934e-08
6.824666e-25
6.4593889e-25
1.0090042e-24
1.7683472e-23
2.248325e-19
3.6212956e-18
1.1056017e-15
8.2456895e-12
5.9210919e-10
5.9612966e-08
1.2190273e-24
1.5622713e-24
1.4562892e-23
3.2772181e-19
3.3881868e-18
1.7887533e-17
1.1372112e-12
3.1787204e-11
1.1355166e-09
7.5953041e-08
2.2904317e-24
4.9659096e-24
3.3831719e-19
3.0616418e-18
1.1877013e-17
6.4901685e-14
6.8452603e-12
7.3087851e-11
1.9274315e-09
7.4784332e-08
3.6753952e-24
2.4248963e-19
2.1363411e-18
8.1959904e-18
3.465506e-17
1.5135622e-12
1.7700948e-11
1.2878862e-10
2.7430102e-09
5.5631034e-08
9.902364e-20
1.2313687e-18
5.7626425e-18
2.0828766e-17
1.1116404e-13
5.3080688e-12
4.0705625e-11
1.9405144e-10
3.3363348e-09
5.4010178e-08
5.2583095e-19
4.146517e-18
1.1697493e-17
4.8356638e-17
1.5276469e-12
1.5824651e-11
7.2029857e-11
2.6544774e-10
3.5311021e-09
5.0471978e-08
1.5732809e-18
7.0003565e-18
2.3867978e-17
1.0937118e-13
4.065698e-12
2.3935597e-11
9.4555774e-11
3.3573554e-10
3.1563201e-09
4.4755864e-08
3.770851e-18
1.0431566e-17
4.7174667e-17
9.6957349e-13
9.2376795e-12
3.8836212e-11
1.2079732e-10
3.9729438e-10
2.5999166e-09
3.5011374e-08
7.9038295e-18
1.5480439e-17
5.4204514e-14
3.0202245e-12
2.0724495e-11
6.9100615e-11
1.4884296e-10
4.4245644e-10
2.8003658e-09
2.3190986e-08
1.1604034e-17
2.7117647e-17
2.273896e-13
5.9701729e-12
2.7953995e-11
9.3674163e-11
1.7829301e-10
4.6078282e-10
2.8791931e-09
1.8654659e-08
1.6107203e-17
4.7011306e-17
1.3657316e-12
1.0972651e-11
3.6956751e-11
1.2222549e-10
2.0866444e-10
4.7784452e-10
2.8256524e-09
1.6995574e-08
2.0980674e-17
7.8781423e-15
3.5981253e-12
1.9869661e-11
5.2391782e-11
1.321657e-10
2.3920584e-10
5.337115e-10
2.624446e-09
1.4878619e-08
2.7707865e-17
1.3086449e-13
6.1823873e-12
3.1365409e-11
7.7926509e-11
1.5400202e-10
2.6901517e-10
5.8463206e-10
2.2568291e-09
1.2314662e-08
3.6785179e-17
3.3483772e-13
9.901661e-12
3.9028168e-11
1.0697915e-10
1.7693398e-10
3.0036821e-10
6.3344473e-10
1.711731e-09
9.3811665e-09
5.0090228e-17
8.383781e-13
1.522373e-11
4.7923936e-11
1.2968891e-10
2.008706e-10
3.3271834e-10
6.7577087e-10
1.8015186e-09
6.2130717e-09
7.2328018e-17
2.9100817e-12
2.2238608e-11
5.8147157e-11
1.5515075e-10
2.2578599e-10
3.655122e-10
7.0979681e-10
1.837683e-09
5.8664152e-09
1.1400616e-16
5.8668336e-12
3.3535257e-11
7.2641518e-11
1.8336038e-10
2.5165353e-10
3.9874077e-10
7.3373509e-10
1.8225402e-09
5.6086873e-09
1.8190899e-16
8.7724555e-12
4.9676428e-11
9.56297e-11
2.144392e-10
2.7855635e-10
4.3153071e-10
7.4429963e-10
1.7690498e-09
5.229039e-09
3.1808401e-16
1.2251816e-11
5.8305189e-11
1.2244665e-10
2.0745242e-10
3.0594171e-10
4.6494726e-10
7.3849687e-10
1.7191871e-09
4.7389946e-09
5.5003429e-16
1.6508938e-11
6.7869212e-11
1.5277841e-10
2.301641e-10
3.3382239e-10
4.9776124e-10
7.7718566e-10
1.6006924e-09
4.145738e-09
1.6148403e-13
2.1593485e-11
7.8389399e-11
1.8213694e-10
2.5405777e-10
3.6254219e-10
5.298225e-10
8.1480083e-10
1.4169516e-09
3.4493267e-09
3.9956408e-13
2.7809439e-11
8.987201e-11
2.0663608e-10
2.7857154e-10
3.9141963e-10
5.6087945e-10
8.5361203e-10
1.4002651e-09
2.6977535e-09
7.0845073e-13
3.5009447e-11
1.0232409e-10
2.3291258e-10
3.0430927e-10
4.2124678e-10
5.9102995e-10
8.8747661e-10
1.4371412e-09
2.6889887e-09
1.0954444e-12
4.3164597e-11
1.1573485e-10
2.604765e-10
3.3097909e-10
4.516132e-10
6.2507261e-10
9.1416841e-10
1.460927e-09
2.6620598e-09
1.56587e-12
5.225435e-11
1.3016891e-10
2.8968613e-10
3.5848158e-10
4.8279182e-10
6.5924646e-10
9.3396456e-10
1.4671978e-09
2.6004913e-09
2.1222029e-12
6.2257497e-11
1.4531171e-10
3.1987916e-10
3.8699485e-10
5.1477465e-10
6.934681e-10
9.538329e-10
1.4565387e-09
2.5053517e-09
2.7655872e-12
7.3015574e-11
1.6431264e-10
3.5158919e-10
4.1666579e-10
5.4739961e-10
7.2849661e-10
9.806446e-10
1.4339687e-09
2.376721e-09
3.4882775e-12
8.4613496e-11
1.8702711e-10
3.8397399e-10
4.4735252e-10
5.8074432e-10
7.6345897e-10
1.0143104e-09
1.4016304e-09
2.2139941e-09
4.2879277e-12
9.9818445e-11
2.1045453e-10
4.1732826e-10
4.7902765e-10
6.1477671e-10
7.9686207e-10
1.0460649e-09
1.4095684e-09
2.0237761e-09
6.0989626e-12
1.1551857e-10
2.3416103e-10
4.5129955e-10
5.1174634e-10
6.4944434e-10
8.3007641e-10
1.0813265e-09
1.4366856e-09
1.9859591e-09
8.5043525e-12
1.313574e-10
2.5791585e-10
4.8580043e-10
5.4562223e-10
6.8577291e-10
8.6794549e-10
1.1129681e-09
1.4589119e-09
1.9931928e-09
1.0957317e-11
1.4703228e-10
2.8129826e-10
5.2048228e-10
5.8063911e-10
7.2287585e-10
9.0502356e-10
1.1410402e-09
1.4822317e-09
1.9950862e-09
1.336999e-11
1.621438e-10
3.0386889e-10
5.5518178e-10
6.1672227e-10
7.5964915e-10
9.4125792e-10
1.170072e-09
1.5026317e-09
1.9920524e-09
1.5665457e-11
1.7631585e-10
3.2524534e-10
5.8980962e-10
6.5499299e-10
7.9746505e-10
9.7852227e-10
1.2082725e-09
1.5144148e-09
1.9762486e-09
1.7795837e-11
1.8918517e-10
3.4506972e-10
6.2416505e-10
6.9379427e-10
8.3735814e-10
1.0169759e-09
1.2448791e-09
1.5295679e-09
1.9502808e-09
1.9719052e-11
2.0038111e-10
3.6288136e-10
6.5843327e-10
7.3256416e-10
8.769989e-10
1.0562289e-09
1.2799374e-09
1.559408e-09
1.9227839e-09
2.1367497e-11
2.0952574e-10
3.783839e-10
6.9165401e-10
7.7409002e-10
9.1715593e-10
1.0950644e-09
1.31434e-09
1.5916467e-09
1.9456559e-09
2.2680554e-11
2.1623305e-10
3.9124519e-10
7.2346077e-10
8.1674529e-10
9.6049546e-10
1.1371869e-09
1.3509151e-09
1.621723e-09
1.9680025e-09
2.3546737e-11
2.2025346e-10
4.0098654e-10
7.5501956e-10
8.5934211e-10
1.0035711e-09
1.1788299e-09
1.3905259e-09
1.6508905e-09
1.9881984e-09
2.4085404e-11
2.2156409e-10
4.074538e-10
7.8522313e-10
9.0485468e-10
1.0463843e-09
1.2200381e-09
1.429345e-09
1.67785e-09
2.0036816e-09
2.4254381e-11
2.1954537e-10
4.1350632e-10
8.1357508e-10
9.5154124e-10
1.0930022e-09
1.2636648e-09
1.4681163e-09
1.7126392e-09
2.016578e-09
2.3883466e-11
2.1403102e-10
4.2872301e-10
8.4102904e-10
9.9812504e-10
1.1396729e-09
1.3090105e-09
1.5082982e-09
1.7491346e-09
2.0343236e-09
2.3000511e-11
2.1361586e-10
4.4262341e-10
8.6592867e-10
1.0475969e-09
1.1855764e-09
1.3534089e-09
1.5483087e-09
1.7841937e-09
2.0641822e-09
2.1400573e-11
2.1012738e-10
4.5466495e-10
8.9019002e-10
1.1648074e-09
1.2352552e-09
1.3971e-09
1.5911719e-09
1.8198538e-09
2.0941567e-09
1.9815996e-11
2.0654323e-10
4.6720141e-10
9.1474147e-10
1.1852259e-09
1.2863746e-09
1.4453172e-09
1.6347367e-09
1.8541308e-09
2.1219289e-09
1.8307229e-11
2.0224538e-10
4.7844478e-10
9.0311722e-10
1.201673e-09
1.3373001e-09
1.49403e-09
1.6791769e-09
1.8945685e-09
2.149174e-09
1.648677e-11
1.9627523e-10
4.8894666e-10
8.7811919e-10
1.2147602e-09
1.3899448e-09
1.543902e-09
1.7239223e-09
1.9353152e-09
2.1790063e-09
1.4416673e-11
1.8919139e-10
4.9828626e-10
8.4607209e-10
1.2246577e-09
1.4436311e-09
1.5945545e-09
1.7712058e-09
1.9765823e-09
2.2136365e-09
1.2347751e-11
1.8031663e-10
5.0596341e-10
8.0725266e-10
1.2307766e-09
1.4990613e-09
1.6458498e-09
1.8183674e-09
2.0167113e-09
2.2488867e-09
1.1792611e-11
1.6946606e-10
5.1231899e-10
7.561358e-10
1.2366893e-09
1.5339307e-09
1.6997635e-09
1.865973e-09
2.0595323e-09
2.2833698e-09
1.1270089e-11
1.5866082e-10
5.180912e-10
7.0959649e-10
1.2426815e-09
1.5294346e-09
1.7541399e-09
1.9158221e-09
2.1042975e-09
2.3174741e-09
1.0763064e-11
1.4749152e-10
5.2311749e-10
6.5998007e-10
1.244703e-09
1.5186961e-09
1.8097707e-09
1.9670359e-09
2.1491763e-09
2.3571588e-09
1.0206436e-11
1.3794672e-10
5.2707995e-10
6.4516832e-10
1.2056965e-09
1.5030587e-09
1.8665025e-09
2.0187309e-09
2.1938793e-09
2.3969477e-09
9.5730139e-12
1.2921283e-10
5.2946031e-10
6.419131e-10
1.1115495e-09
1.4881697e-09
1.7776485e-09
2.0716267e-09
2.240753e-09
2.4368244e-09
8.920947e-12
1.2048517e-10
4.7270914e-10
6.3843553e-10
1.0258744e-09
1.4727424e-09
1.7472478e-09
2.1259319e-09
2.288939e-09
2.4753591e-09
8.2668836e-12
1.1174239e-10
4.0643809e-10
6.3385244e-10
9.3258509e-10
1.4491041e-09
1.7158014e-09
2.0036512e-09
2.3394801e-09
2.5187458e-09
7.6335949e-12
1.032611e-10
3.4025491e-10
6.2868241e-10
8.414522e-10
1.4278926e-09
1.6836611e-09
1.955488e-09
2.3906117e-09
2.5630063e-09
7.0126501e-12
9.5012682e-11
2.9875511e-10
6.2317146e-10
7.4893313e-10
1.3055565e-09
1.6448064e-09
1.9003112e-09
2.4430933e-09
2.6071368e-09
6.3677198e-12
8.6844842e-11
2.7100812e-10
6.1656986e-10
7.235655e-10
1.1757646e-09
1.6006165e-09
1.8466423e-09
2.0943199e-09
2.653852e-09
5.7054369e-12
7.875251e-11
2.4331579e-10
6.0943156e-10
7.0937997e-10
1.0455716e-09
1.5568001e-09
1.7861884e-09
2.0297077e-09
2.2653116e-09
5.0447719e-12
7.071263e-11
2.163461e-10
6.0180389e-10
6.9509732e-10
9.1807274e-10
1.4243865e-09
1.7281031e-09
1.9557489e-09
2.1849498e-09
4.3824805e-12
5.9826883e-11
1.9025592e-10
5.5865915e-10
6.806893e-10
7.9200221e-10
1.2652047e-09
1.6688717e-09
1.8790216e-09
2.0938212e-09
3.7097759e-12
4.9473746e-11
1.6524367e-10
4.5758033e-10
6.6619462e-10
7.5825802e-10
1.1096967e-09
1.5708424e-09
1.8044204e-09
2.0025791e-09
3.0174719e-12
3.9482992e-11
1.4415719e-10
3.5807919e-10
6.5140248e-10
7.3643458e-10
9.5310577e-10
1.3801831e-09
1.72797e-09
1.9083069e-09
2.3305315e-12
2.9935234e-11
1.285626e-10
3.0083593e-10
6.3644461e-10
7.1447824e-10
7.985261e-10
1.1929062e-09
1.5881842e-09
1.8177466e-09
1.6758022e-12
2.1071114e-11
1.1401235e-10
2.6231336e-10
6.2184245e-10
6.9371608e-10
7.708003e-10
1.0180541e-09
1.3854547e-09
1.7350055e-09
1.0602516e-12
1.343678e-11
1.0060343e-10
2.2658678e-10
5.2857782e-10
6.7379078e-10
7.451045e-10
8.5413095e-10
1.1972398e-09
1.5323499e-09
4.8436213e-13
1.163747e-11
8.8428898e-11
1.9398953e-10
4.1183029e-10
6.5534969e-10
7.2072612e-10
7.8849583e-10
1.0211314e-09
1.3349429e-09
4.0624835e-15
1.0009157e-11
7.7413797e-11
1.6426226e-10
3.1951821e-10
6.3773205e-10
6.9805036e-10
7.6050882e-10
8.5510778e-10
1.1494041e-09
4.3427901e-14
8.5417858e-12
6.671587e-11
1.4078422e-10
2.7845244e-10
5.9932926e-10
6.7649659e-10
7.3431779e-10
7.9200408e-10
9.7334513e-10
9.6636281e-14
7.1980359e-12
5.4055824e-11
1.2469071e-10
2.4085016e-10
4.750942e-10
6.5636591e-10
7.0931791e-10
7.6288905e-10
8.1478646e-10
1.6364837e-13
5.9746669e-12
4.2607628e-11
1.100007e-10
2.0642426e-10
3.602301e-10
6.3711419e-10
6.8593953e-10
7.3512429e-10
7.835177e-10
2.4797244e-13
4.860573e-12
3.2270899e-11
9.6663381e-11
1.7474843e-10
2.9659461e-10
5.8484613e-10
6.635842e-10
7.0912347e-10
7.5372476e-10
3.4853187e-13
3.8460171e-12
2.2909502e-11
8.4472921e-11
1.4565994e-10
2.5650073e-10
4.585247e-10
6.4273115e-10
6.8436339e-10
7.2550552e-10
4.6558023e-13
2.925908e-12
1.4466518e-11
7.3368276e-11
1.2771881e-10
2.1966048e-10
3.4175637e-10
6.2284546e-10
6.6096365e-10
6.9887934e-10
5.9992386e-13
2.0791157e-12
1.1415485e-11
6.2076881e-11
1.1222266e-10
1.8586878e-10
2.8563748e-10
5.0169533e-10
6.3893425e-10
6.7375211e-10
7.4964355e-13
1.3002454e-12
9.6443534e-12
4.9415474e-11
9.8109297e-11
1.5492816e-10
2.4563086e-10
3.7959456e-10
6.1817477e-10
6.5008505e-10
9.1297988e-13
5.9189706e-13
8.037082e-12
3.7998345e-11
8.529038e-11
1.3107342e-10
2.0900105e-10
2.957822e-10
4.9827593e-10
6.2787189e-10
1.0853311e-12
1.537433e-14
6.5913594e-12
2.7749178e-11
7.3672621e-11
1.1486648e-10
1.7556334e-10
2.5461994e-10
3.7609165e-10
5.8947404e-10
1.2609446e-12
2.1578122e-13
5.2973348e-12
1.8573464e-11
6.315263e-11
1.0018705e-10
1.4512772e-10
2.1703116e-10
2.910249e-10
4.6049485e-10
1.4357588e-12
4.2589312e-13
4.1388951e-12
1.1727873e-11
5.0223741e-11
8.6912773e-11
1.2374505e-10
1.8280226e-10
2.5039051e-10
3.422269e-10
1.607823e-12
6.423913e-13
3.0929456e-12
9.8328882e-12
3.8633097e-11
7.4963082e-11
1.0812596e-10
1.517495e-10
2.133734e-10
2.7573851e-10
1.7734468e-12
8.6017085e-13
2.1583045e-12
8.1428418e-12
2.8333265e-11
6.4219381e-11
9.4053301e-11
1.2604438e-10
1.7975209e-10
2.3691822e-10
1.9274536e-12
1.0711773e-12
1.3373775e-12
6.6488758e-12
1.920002e-11
5.2571309e-11
8.138754e-11
1.1027763e-10
1.4932513e-10
2.0163132e-10
2.0660643e-12
1.2696622e-12
6.2216758e-13
5.333057e-12
1.1350219e-11
4.0988443e-11
7.0013983e-11
9.6090704e-11
1.2343499e-10
1.6964899e-10
2.1877802e-12
1.4524424e-12
2.2539513e-15
4.1672138e-12
9.5061375e-12
3.0702922e-11
5.9859425e-11
8.3365696e-11
1.0812976e-10
1.4073535e-10
2.2910541e-12
1.6166404e-12
2.8399575e-13
3.1424889e-12
7.8800099e-12
2.1637579e-11
4.849533e-11
7.196344e-11
9.4400036e-11
1.1759391e-10
2.3728581e-12
1.7584007e-12
5.4289373e-13
2.2539377e-12
6.4579446e-12
1.3679946e-11
3.780083e-11
6.1774738e-11
8.2093205e-11
1.0319011e-10
2.433247e-12
1.8759055e-12
7.7299253e-13
1.4922316e-12
5.2155286e-12
9.6698426e-12
2.8369445e-11
5.1921978e-11
7.1093043e-11
9.0281491e-11
2.4727516e-12
1.9695068e-12
9.7330293e-13
8.4143238e-13
4.1331191e-12
8.095197e-12
2.0098552e-11
4.13513e-11
6.1285046e-11
7.8747055e-11
2.4913154e-12
2.0386932e-12
1.1420891e-12
2.9207341e-13
3.2025842e-12
6.7289894e-12
1.2914111e-11
3.208948e-11
5.2519178e-11
6.8455167e-11
2.4887222e-12
2.0827357e-12
1.2776121e-12
9.7071616e-14
2.4156914e-12
5.5491185e-12
9.1426504e-12
2.3981819e-11
4.2481314e-11
5.9295109e-11
2.4655353e-12
2.1021347e-12
1.3803446e-12
3.2023647e-13
1.7537252e-12
4.5325348e-12
7.7416137e-12
1.6947758e-11
3.3735922e-11
5.1181539e-11
2.4222796e-12
2.0974452e-12
1.4512809e-12
5.0111224e-13
1.2047199e-12
3.6710821e-12
6.5406646e-12
1.0924148e-11
2.6139619e-11
4.2211885e-11
2.3595563e-12
2.0693827e-12
1.4912998e-12
6.4024664e-13
7.6095894e-13
2.9535857e-12
5.5148889e-12
8.3785261e-12
1.9573626e-11
3.4228904e-11
2.2780414e-12
2.0188782e-12
1.5018052e-12
7.3980882e-13
4.1111185e-13
2.3624501e-12
4.6473462e-12
7.2200841e-12
1.3984771e-11
2.7353202e-11
2.1779097e-12
1.9463485e-12
1.483649e-12
8.0123411e-13
1.4765128e-13
1.8869065e-12
3.9281228e-12
6.2428597e-12
9.2869928e-12
2.148025e-11
2.0589224e-12
1.8516009e-12
1.4372652e-12
8.2545931e-13
2.3403403e-14
1.518768e-12
3.3461871e-12
5.4255891e-12
7.7142752e-12
1.6520272e-11
1.9214074e-12
1.7356036e-12
1.3640863e-12
8.1466401e-13
9.3330208e-14
1.2457279e-12
2.8836257e-12
4.7521473e-12
6.8228633e-12
1.2403968e-11
1.7658146e-12
1.5991405e-12
1.2655988e-12
7.7169406e-13
1.222964e-13
1.0577748e-12
2.5294902e-12
4.212682e-12
6.0904994e-12
9.0716177e-12
1.5918689e-12
1.4420204e-12
1.1419046e-12
6.9693537e-13
1.1103586e-13
9.5048982e-13
2.2764373e-12
3.7964721e-12
5.499562e-12
7.3547209e-12
1.4000417e-12
1.2650177e-12
9.943979e-13
5.9271559e-13
6.3035615e-14
9.15034e-13
2.1127156e-12
3.4885672e-12
5.0341404e-12
6.7271709e-12
1.1909601e-12
1.069028e-12
8.2449004e-13
4.6114284e-13
3.0716134e-14
9.4436179e-13
2.0289957e-12
3.2773953e-12
4.6833274e-12
6.2317928e-12
9.6553153e-13
8.5518823e-13
6.3376703e-13
3.0434768e-13
2.0328254e-13
1.0318602e-12
2.0166777e-12
3.1526092e-12
4.4350439e-12
5.8538676e-12
7.2538152e-13
6.253444e-13
4.2450651e-13
1.2526765e-13
4.1676767e-13
1.1703504e-12
2.0671706e-12
3.1037505e-12
4.2768299e-12
5.579498e-12
4.7313172e-13
3.8233653e-13
1.9991238e-13
1.1247241e-13
6.6539523e-13
1.3527118e-12
2.1718045e-12
3.1204756e-12
4.1965264e-12
5.3959309e-12
2.1232418e-13
1.2983387e-13
5.7116236e-14
4.3750119e-13
9.4282592e-13
1.5713397e-12
2.3216522e-12
3.1924633e-12
4.1833121e-12
5.2897536e-12
8.2267239e-14
1.9776755e-13
4.3056821e-13
7.7887625e-13
1.2416665e-12
1.8181296e-12
2.5080294e-12
3.3105441e-12
4.2252305e-12
5.2484374e-12
4.8998262e-13
5.9600298e-13
8.0962646e-13
1.1294041e-12
1.5549571e-12
2.0860109e-12
2.7223272e-12
3.4639246e-12
4.3112279e-12
5.2607954e-12
8.9379163e-13
9.9139761e-13
1.1881311e-12
1.4829146e-12
1.8756639e-12
2.3663669e-12
2.9553902e-12
3.6438878e-12
4.4336457e-12
5.3194985e-12
1.28746e-12
1.3776987e-12
1.5596257e-12
1.8326091e-12
2.1970019e-12
2.6532511e-12
3.2022359e-12
3.8452292e-12
4.5836287e-12
5.7199992e-12
1.6672237e-12
1.7512194e-12
1.9206624e-12
2.1750475e-12
2.5148993e-12
2.9410914e-12
3.4548839e-12
4.0596973e-12
4.7565129e-12
6.8778527e-12
2.0290142e-12
2.1077801e-12
2.2667774e-12
2.5057867e-12
2.8256674e-12
3.2279022e-12
3.7151755e-12
4.2895042e-12
4.9505593e-12
8.0306754e-12
2.3738801e-12
2.448344e-12
2.5987116e-12
2.8256637e-12
3.1302541e-12
3.5153743e-12
3.9829159e-12
4.5357309e-12
5.6983775e-12
9.1546831e-12
2.710429e-12
2.7825175e-12
2.9283329e-12
3.1483081e-12
3.4441767e-12
3.8184168e-12
4.2743143e-12
4.8164444e-12
6.8518144e-12
1.0242725e-11
3.0402848e-12
3.111053e-12
3.2544088e-12
3.4711297e-12
3.7634566e-12
4.1353737e-12
4.5982379e-12
5.1513445e-12
7.8591129e-12
1.1250539e-11
3.3793765e-12
3.450491e-12
3.5959e-12
3.8194377e-12
4.1227758e-12
4.510795e-12
4.9898089e-12
5.7064259e-12
8.6665946e-12
1.2155824e-11
3.7624367e-12
3.8383104e-12
3.9928403e-12
4.2281595e-12
4.5487076e-12
4.9606736e-12
5.4721416e-12
6.1061665e-12
9.2144184e-12
1.2942191e-11
4.2028668e-12
4.2847807e-12
4.4519938e-12
4.707321e-12
5.0563582e-12
5.5068745e-12
6.0899252e-12
6.8564355e-12
9.3385973e-12
1.3365755e-11
4.695698e-12
4.7856498e-12
4.9694263e-12
5.2504736e-12
5.6504341e-12
6.2261636e-12
6.9602974e-12
7.8789731e-12
9.0137233e-12
1.2950556e-11
5.2191531e-12
5.332824e-12
5.5882518e-12
5.9853947e-12
6.5418269e-12
7.282175e-12
8.2390318e-12
9.4540932e-12
1.0979473e-11
1.2878908e-11
5.9902756e-12
6.1572095e-12
6.5016382e-12
7.0555962e-12
7.8424022e-12
8.9063996e-12
1.0306623e-11
1.2119064e-11
1.4439284e-11
1.7385317e-11
7.1124892e-12
7.3723273e-12
7.9106579e-12
8.7559283e-12
9.9556154e-12
1.1653523e-11
1.3973639e-11
1.7040822e-11
2.1050016e-11
2.6243449e-11
8.5914784e-12
9.0386902e-12
9.9688901e-12
1.1441532e-11
1.3554392e-11
1.6444268e-11
2.0292258e-11
2.5543735e-11
3.2943647e-11
4.2721915e-11
8.9748177e-12
9.7507291e-12
1.137003e-11
1.3958457e-11
1.7719906e-11
2.2941058e-11
3.0003948e-11
3.9401283e-11
5.1754204e-11
6.7832286e-11
4.6389473e-12
4.8404088e-12
6.2529771e-12
1.0315592e-11
1.6348795e-11
2.493065e-11
3.6839801e-11
5.3092165e-11
7.4983826e-11
1.0413944e-10
3.3947043e-12
3.4882697e-12
3.8378648e-12
4.7029494e-12
5.9335123e-12
7.600243e-12
2.4151837e-11
4.7390924e-11
7.9033843e-11
1.2465825e-10
6.1817347e-12
6.4031362e-12
6.8697668e-12
7.6084067e-12
8.6651753e-12
1.0104069e-11
1.2008563e-11
1.44841e-11
3.5348922e-11
9.6227716e-11
8.0416987e-12
8.4669571e-12
9.3451719e-12
1.0723802e-11
1.2680372e-11
1.5321728e-11
1.8787027e-11
2.325149e-11
2.8929964e-11
3.6082777e-11
3.129603e-12
3.1500047e-12
3.7171149e-12
6.0512182e-12
9.3558791e-12
1.3807039e-11
1.9633369e-11
2.719529e-11
3.8062971e-11
5.2342362e-11
4.4398058e-12
4.4879865e-12
4.5882958e-12
4.7447927e-12
5.0204709e-12
5.4112268e-12
5.9318159e-12
1.363309e-11
3.0866548e-11
5.3547385e-11
5.5916995e-12
5.7055913e-12
5.9446448e-12
6.3236149e-12
6.8674358e-12
7.6107635e-12
8.5990419e-12
9.889879e-12
1.1554705e-11
1.3681364e-11
5.0661782e-12
5.267001e-12
5.6825168e-12
6.3417521e-12
7.2910536e-12
8.5945583e-12
1.0336387e-11
1.2623313e-11
1.558795e-11
1.9393883e-11
5.2784188e-12
5.2863699e-12
5.3044605e-12
5.3338272e-12
5.3768109e-12
5.4367307e-12
7.8070921e-12
1.162778e-11
1.6637595e-11
2.3138483e-11
6.2116169e-12
6.2312371e-12
6.2736658e-12
6.3414616e-12
6.4393482e-12
6.5739476e-12
6.7539689e-12
6.9904739e-12
7.6247095e-12
1.8188749e-11
6.9996916e-12
7.0374892e-12
7.1177751e-12
7.2460581e-12
7.4317948e-12
7.6881721e-12
8.0325253e-12
8.486888e-12
9.0786561e-12
9.8416534e-12
7.3621467e-12
7.3599224e-12
7.488366e-12
7.7009688e-12
8.0134036e-12
8.4520402e-12
9.0516293e-12
9.8564925e-12
1.0921947e-11
1.2316577e-11
8.2778225e-12
8.2774265e-12
8.2782078e-12
8.280653e-12
8.2859418e-12
8.2957771e-12
9.1118692e-12
1.0405318e-11
1.217655e-11
1.456549e-11
9.2033563e-12
9.2080149e-12
9.2193945e-12
9.2385349e-12
9.2675714e-12
9.3095266e-12
9.368382e-12
9.4491949e-12
1.16299e-11
1.5181475e-11
1.0099634e-11
1.0111895e-11
1.0139216e-11
1.0183604e-11
1.0248822e-11
1.0340138e-11
1.0464449e-11
1.063047e-11
1.0848965e-11
1.2797808e-11
1.089734e-11
1.0919881e-11
1.0968915e-11
1.104828e-11
1.1164718e-11
1.1327608e-11
1.1549204e-11
1.184497e-11
1.2233975e-11
1.273957e-11
1.1548826e-11
1.1585138e-11
1.1661549e-11
1.178226e-11
1.1954548e-11
1.2188457e-11
1.2497026e-11
1.2938854e-11
1.3568844e-11
1.4404516e-11
1.2399517e-11
1.239817e-11
1.2397647e-11
1.2398956e-11
1.2558233e-11
1.2966011e-11
1.3507444e-11
1.4213233e-11
1.5121059e-11
1.6277014e-11
1.325453e-11
1.3258139e-11
1.3268274e-11
1.3286695e-11
1.3316787e-11
1.3363307e-11
1.4060026e-11
1.520234e-11
1.6709378e-11
1.8674286e-11
1.4136086e-11
1.4145033e-11
1.4165849e-11
1.4200491e-11
1.4252641e-11
1.4327436e-11
1.4431566e-11
1.5435401e-11
1.749498e-11
2.0295542e-11
1.500462e-11
1.502414e-11
1.5067323e-11
1.5137392e-11
1.5240237e-11
1.5384043e-11
1.5579442e-11
1.5839747e-11
1.8125663e-11
2.2644496e-11
1.5830183e-11
1.5859215e-11
1.592146e-11
1.6020376e-11
1.6162237e-11
1.6355712e-11
1.6612006e-11
1.6983163e-11
1.7518606e-11
2.3097985e-11
1.6723314e-11
1.6773103e-11
1.6878987e-11
1.7046668e-11
1.7286287e-11
1.7611845e-11
1.8041415e-11
1.8597492e-11
1.9307398e-11
2.1196784e-11
1.6617947e-11
1.692833e-11
1.756225e-11
1.7921514e-11
1.8232891e-11
1.8649327e-11
1.9209724e-11
2.0036373e-11
2.1106439e-11
2.2475392e-11
1.619242e-11
1.6542826e-11
1.7261244e-11
1.8363172e-11
1.9574013e-11
2.0238798e-11
2.1104615e-11
2.2210656e-11
2.3604292e-11
2.5342616e-11
1.5599732e-11
1.5982535e-11
1.6766842e-11
1.7969743e-11
1.9623481e-11
2.1453768e-11
2.2532424e-11
2.397221e-11
2.6013119e-11
2.8617664e-11
1.5158896e-11
1.5585831e-11
1.650903e-11
1.7936162e-11
1.9919384e-11
2.2530278e-11
2.5174645e-11
2.7320336e-11
3.0012328e-11
3.335729e-11
1.5093641e-11
1.5440526e-11
1.6150152e-11
1.7634703e-11
1.9886442e-11
2.2846001e-11
2.6612586e-11
2.9854827e-11
3.3140424e-11
3.7364758e-11
1.5087593e-11
1.547089e-11
1.6258529e-11
1.7466604e-11
1.9850916e-11
2.3399143e-11
2.7978394e-11
3.3576234e-11
3.8246677e-11
4.4019712e-11
1.5397306e-11
1.582564e-11
1.6709041e-11
1.8070133e-11
1.9952567e-11
2.4182322e-11
2.9845614e-11
3.7080292e-11
4.4692947e-11
5.2767472e-11
1.6019962e-11
1.6492044e-11
1.7465159e-11
1.8965514e-11
2.1070722e-11
2.4805497e-11
3.188563e-11
4.1045993e-11
5.2546638e-11
6.383202e-11
1.7081906e-11
1.7624536e-11
1.8746973e-11
2.048492e-11
2.2904128e-11
2.6096901e-11
3.4063189e-11
4.5389352e-11
6.042898e-11
7.7370888e-11
1.853648e-11
1.9167278e-11
2.0476911e-11
2.2513236e-11
2.5363083e-11
2.9148313e-11
3.6637944e-11
5.1528632e-11
7.0438955e-11
9.3340688e-11
2.0357718e-11
2.1097081e-11
2.2638401e-11
2.5045332e-11
2.8432173e-11
3.2959339e-11
3.8838589e-11
5.8269228e-11
8.3741284e-11
1.1609771e-10
2.2996887e-11
2.38451e-11
2.5608984e-11
2.8359029e-11
3.2220774e-11
3.7375007e-11
4.4488843e-11
6.452695e-11
9.8516786e-11
1.4245987e-10
2.6696346e-11
2.7728852e-11
2.9882945e-11
3.3251823e-11
3.8000729e-11
4.4359973e-11
5.2631155e-11
7.0727372e-11
1.1414005e-10
1.7102453e-10
3.1026476e-11
3.228813e-11
3.4930766e-11
3.9078463e-11
4.4950492e-11
5.2852337e-11
6.3184118e-11
7.661786e-11
1.3637936e-10
2.1318961e-10
3.696667e-11
3.8459269e-11
4.1572043e-11
4.6438392e-11
5.3293931e-11
6.2465355e-11
7.4961775e-11
9.1630159e-11
1.5769885e-10
2.6258341e-10
4.5095928e-11
4.6991626e-11
5.0957309e-11
5.717217e-11
6.5952619e-11
7.7737103e-11
9.3096035e-11
1.1274388e-10
1.7911723e-10
3.1257233e-10
5.3678474e-11
5.6058042e-11
6.1060275e-11
6.893208e-11
8.010822e-11
9.519062e-11
1.1496134e-10
1.4039937e-10
2.0440248e-10
3.8965406e-10
6.7846853e-11
7.0788681e-11
7.693082e-11
8.653145e-11
1.0004864e-10
1.1811438e-10
1.4154649e-10
1.7136494e-10
2.1773513e-10
4.6241829e-10
8.3570207e-11
8.7379485e-11
9.5367705e-11
1.0790009e-10
1.2562276e-10
1.4942655e-10
1.8046274e-10
2.2016535e-10
2.7026989e-10
5.5704742e-10
1.0455215e-10
1.0924696e-10
1.1902782e-10
1.3427048e-10
1.5564741e-10
1.8408334e-10
2.2076987e-10
2.7102967e-10
3.3735314e-10
6.5896429e-10
1.3176805e-10
1.3799153e-10
1.5101314e-10
1.7138368e-10
2.0008404e-10
2.3846281e-10
2.8825636e-10
3.5161769e-10
4.3114414e-10
7.6243239e-10
1.6362874e-10
1.7128819e-10
1.8721394e-10
2.119657e-10
2.4655541e-10
2.9237188e-10
3.556755e-10
4.4022938e-10
5.4767172e-10
8.876103e-10
2.0887514e-10
2.1918211e-10
2.4071136e-10
2.7431938e-10
3.2154094e-10
3.8448314e-10
4.6585321e-10
5.6899989e-10
6.9796066e-10
9.8815904e-10
2.5835912e-10
2.7105013e-10
2.9739905e-10
3.3826968e-10
3.952377e-10
4.704639e-10
5.7792548e-10
7.1721997e-10
8.9397061e-10
1.1166495e-09
3.3092591e-10
3.4811034e-10
3.8397365e-10
4.3990049e-10
5.1838068e-10
6.2283334e-10
7.5765125e-10
9.2826938e-10
1.141247e-09
1.4044429e-09
4.0938844e-10
4.3060944e-10
4.7463438e-10
5.4285676e-10
6.3783138e-10
7.6306167e-10
9.3017354e-10
1.1509598e-09
1.4290934e-09
1.7759378e-09
5.0722871e-10
5.346761e-10
5.9178829e-10
6.8058159e-10
8.047125e-10
9.6920371e-10
1.1811206e-09
1.4659956e-09
1.8253768e-09
2.2742313e-09
6.3562949e-10
6.7105748e-10
7.4479356e-10
8.594788e-10
1.0198959e-09
1.2326221e-09
1.5061272e-09
1.8715124e-09
2.3610577e-09
2.9800639e-09
8.1097392e-10
8.5834683e-10
9.5732798e-10
1.111978e-09
1.3295605e-09
1.6200984e-09
1.9965535e-09
2.4750799e-09
3.0753264e-09
3.8210659e-09
1.0195005e-09
1.0789963e-09
1.2025277e-09
1.3942305e-09
1.6616396e-09
2.0151295e-09
2.4680762e-09
3.0370971e-09
3.7541347e-09
4.7879972e-09
1.2370586e-09
1.3141263e-09
1.4755185e-09
1.7284721e-09
2.0858332e-09
2.5654002e-09
3.1903131e-09
3.9895928e-09
4.9987821e-09
6.261086e-09
1.585097e-09
1.6835428e-09
1.8882803e-09
2.2067621e-09
2.652438e-09
3.2438918e-09
4.0051969e-09
4.9664166e-09
6.1642043e-09
7.6430315e-09
1.8993368e-09
2.0182046e-09
2.2643422e-09
2.6453829e-09
3.1834601e-09
3.9592319e-09
4.9786862e-09
6.2944044e-09
7.971265e-09
1.008865e-08
2.4161123e-09
2.575976e-09
2.9092854e-09
3.4296032e-09
4.1611324e-09
5.1374365e-09
6.4022174e-09
8.0103862e-09
1.0029337e-08
1.2541213e-08
2.9492121e-09
3.1453908e-09
3.5524129e-09
4.1843178e-09
5.0665023e-09
6.2340871e-09
7.7326332e-09
9.6191958e-09
1.2299769e-08
1.5778814e-08
3.5687324e-09
3.8206227e-09
4.3477189e-09
5.1745632e-09
6.3444487e-09
7.9176807e-09
9.9732296e-09
1.261095e-08
1.595417e-08
2.0153994e-08
4.4808467e-09
4.7975321e-09
5.4563281e-09
6.4829099e-09
7.9231355e-09
9.8406435e-09
1.2318389e-08
1.5460722e-08
1.9395852e-08
2.4280308e-08
5.3091565e-09
5.6900925e-09
6.475023e-09
7.692774e-09
9.3915525e-09
1.1685244e-08
1.4911027e-08
1.9100254e-08
2.4475018e-08
3.1309021e-08
6.5731546e-09
7.0756974e-09
8.1076705e-09
9.7234264e-09
1.200442e-08
1.5064105e-08
1.9051055e-08
2.4153173e-08
3.0602706e-08
3.8684411e-08
7.9989724e-09
8.6140658e-09
9.8770797e-09
1.1835209e-08
1.4580063e-08
1.8231468e-08
2.2945489e-08
2.8918521e-08
3.6392065e-08
4.6163579e-08
9.301053e-09
1.0023784e-08
1.1510503e-08
1.3868738e-08
1.7321894e-08
2.1999787e-08
2.8162018e-08
3.6138759e-08
4.6340457e-08
5.9272643e-08
1.1608976e-08
1.2552506e-08
1.4514755e-08
1.7550186e-08
2.1830743e-08
2.7566424e-08
3.5031652e-08
4.4573401e-08
5.6620366e-08
7.1697984e-08
1.3868258e-08
1.5002858e-08
1.7355509e-08
2.0981351e-08
2.6055753e-08
3.2804967e-08
4.1517265e-08
5.2554996e-08
6.6363774e-08
8.7759891e-08
1.5941066e-08
1.7285146e-08
2.027592e-08
2.5004972e-08
3.1806791e-08
4.1162378e-08
5.369065e-08
7.0181969e-08
9.1624263e-08
1.1923915e-07
2.1563548e-08
2.345672e-08
2.7420255e-08
3.3633461e-08
4.2437638e-08
5.4357118e-08
7.0050531e-08
9.0352537e-08
1.1629932e-07
1.4916516e-07
2.6818409e-08
2.9171264e-08
3.4071341e-08
4.1714541e-08
5.2443027e-08
6.6823857e-08
8.5552343e-08
1.0950381e-07
1.3975871e-07
1.776394e-07
3.1669522e-08
3.4465213e-08
4.0267364e-08
4.9288959e-08
6.1867645e-08
7.8612803e-08
1.0025335e-07
1.277019e-07
1.6207936e-07
2.0475189e-07
3.6148024e-08
3.9370834e-08
4.6042451e-08
5.6387768e-08
7.0754035e-08
8.9773768e-08
1.1421182e-07
1.4501577e-07
1.8334354e-07
2.3060142e-07
4.0283765e-08
4.3918323e-08
5.1427682e-08
6.304465e-08
7.913797e-08
1.0034516e-07
1.2746981e-07
1.6149198e-07
2.036033e-07
2.5599111e-07
4.4101297e-08
4.8133776e-08
5.6452376e-08
6.9297541e-08
8.7262041e-08
1.1423682e-07
1.5031382e-07
1.977345e-07
2.5928476e-07
3.3839464e-07
5.5168609e-08
6.0523723e-08
7.1736924e-08
8.938748e-08
1.1443723e-07
1.4828488e-07
1.928303e-07
2.5042852e-07
3.2398666e-07
4.1706584e-07
6.8174261e-08
7.4759335e-08
8.8479349e-08
1.0994544e-07
1.4018943e-07
1.8065664e-07
2.3334874e-07
3.0072511e-07
3.8580363e-07
4.9226515e-07
8.0292654e-08
8.8065067e-08
1.0420427e-07
1.2935025e-07
1.6460124e-07
2.114441e-07
2.7197381e-07
3.4874541e-07
4.4487817e-07
5.6416197e-07
9.15939e-08
1.0051427e-07
1.1899139e-07
1.4769143e-07
1.8777526e-07
2.407677e-07
3.0884967e-07
3.9466387e-07
5.0142263e-07
6.3301598e-07
1.0213739e-07
1.1216778e-07
1.3290497e-07
1.6503805e-07
2.0978277e-07
2.6871361e-07
3.4407625e-07
4.3859632e-07
5.5557246e-07
6.9898573e-07
1.1198022e-07
1.2308512e-07
1.4600919e-07
1.8146112e-07
2.3070294e-07
2.9537678e-07
3.7776491e-07
4.8067397e-07
6.0748029e-07
7.8333045e-07
1.211708e-07
1.3331591e-07
1.5835635e-07
1.9701802e-07
2.5548638e-07
3.3531133e-07
4.4064267e-07
5.772032e-07
7.5201241e-07
9.736233e-07
1.4828814e-07
1.6374377e-07
1.9599614e-07
2.4656782e-07
3.1809758e-07
4.1414887e-07
5.3938023e-07
6.9974438e-07
9.0250242e-07
1.1564651e-06
1.7790575e-07
1.962798e-07
2.3447875e-07
2.9409159e-07
3.778979e-07
4.8964371e-07
6.3410737e-07
8.1745198e-07
1.047161e-06
1.3322815e-06
2.0583098e-07
2.2703528e-07
2.709992e-07
3.3937162e-07
4.3506293e-07
5.6199686e-07
7.2505893e-07
9.3060297e-07
1.1863166e-06
1.5014634e-06
2.321798e-07
2.5613031e-07
3.0568629e-07
3.8255065e-07
4.897549e-07
6.3139428e-07
8.1245248e-07
1.0394546e-06
1.320275e-06
1.6643753e-06
2.5705873e-07