/*--------------------------------*- C++ -*----------------------------------*\
  =========                 |
  \\      /  F ield         | OpenFOAM: The Open Source CFD Toolbox
   \\    /   O peration     | Website:  https://openfoam.org
    \\  /    A nd           | Version:  7
     \\/     M anipulation  |
\*---------------------------------------------------------------------------*/
FoamFile
{
    version     2.0;
    format      ascii;
    class       volScalarField;
    location    "80000";
    object      YOH;
}
// * * * * * * * * * * * * * * * * * * * * * * * * * * * * * * * * * * * * * //

dimensions      [0 0 0 0 0 0 0];

internalField   nonuniform List<scalar> 
87000
(
1.1593496e-21
1.2945382e-21
1.6460062e-21
2.3523812e-21
3.8503501e-21
7.2777681e-21
4.4694227e-20
1.062529e-17
9.137077e-08
1.2443511e-08
7.4121413e-21
7.8722265e-21
9.3229917e-21
9.6842592e-21
1.7180214e-20
6.5378038e-20
9.9538905e-19
2.512899e-14
1.0993975e-09
9.1429134e-08
2.0050942e-20
1.6968947e-20
1.845929e-20
2.3019431e-20
9.76889e-20
7.9288526e-19
6.4996263e-17
1.1746629e-12
1.5275774e-09
1.4518698e-07
3.2317232e-20
3.0661178e-20
2.409218e-20
1.1073193e-19
7.0768322e-19
2.1917703e-18
6.2984484e-14
1.3573085e-11
2.9586217e-09
1.8477906e-07
5.4649841e-20
3.2454285e-20
9.4608512e-20
6.0228209e-19
1.6808821e-18
3.8097952e-15
6.2317765e-13
9.8378953e-11
5.0610171e-09
1.8411113e-07
6.4407724e-20
7.4496311e-20
3.8303248e-19
1.2580744e-18
1.811817e-18
8.0227171e-14
2.4199763e-12
2.1032411e-10
7.2201305e-09
1.427993e-07
7.8559881e-20
2.0292057e-19
8.9275737e-19
1.9511297e-18
6.4755419e-15
3.772895e-13
9.8507817e-12
3.4509049e-10
8.7847722e-09
1.3893194e-07
1.4102038e-19
5.4017281e-19
1.4200694e-18
1.6268301e-18
7.5196032e-14
1.7810452e-12
2.5489702e-11
4.9432066e-10
9.3057797e-09
1.3012779e-07
2.5057219e-19
8.9148039e-19
1.9172667e-18
6.2990285e-15
2.2656746e-13
3.0489927e-12
9.769911e-11
6.3818006e-10
8.3573569e-09
1.1597982e-07
4.3930595e-19
1.2627804e-18
2.0461435e-18
4.6665393e-14
6.8080152e-13
6.8006672e-12
1.296329e-10
7.5496713e-10
6.9474309e-09
9.2057913e-08
7.5423671e-19
1.6779996e-18
3.0724831e-15
1.5051604e-13
2.2570526e-12
1.7112898e-11
1.643008e-10
8.2273478e-10
7.4533652e-09
6.3180855e-08
1.163932e-18
2.359382e-18
1.3043927e-14
3.2367428e-13
3.3111356e-12
2.921174e-11
2.0103441e-10
8.1141731e-10
7.6093607e-09
5.1600064e-08
1.7597868e-18
2.9618909e-18
6.2744805e-14
7.4740014e-13
4.7282399e-12
4.5362777e-11
2.3876456e-10
7.9917483e-10
7.3887379e-09
4.6913229e-08
2.4175037e-18
4.351348e-16
1.6539409e-13
1.763171e-12
8.6732441e-12
1.2894089e-10
2.7580536e-10
9.0520957e-10
6.7536554e-09
4.1039603e-08
3.4144347e-18
7.4349899e-15
3.0337857e-13
3.3909513e-12
1.693938e-11
1.5247886e-10
3.0964072e-10
9.9697784e-10
5.6560223e-09
3.400657e-08
4.7588843e-18
1.9369247e-14
5.2802944e-13
4.4842091e-12
2.7335133e-11
1.7756792e-10
3.4772409e-10
1.0827034e-09
4.0693916e-09
2.6016626e-08
6.4756499e-18
4.5192384e-14
9.6481601e-13
5.8202665e-12
3.8124611e-11
2.0411866e-10
3.893808e-10
1.1482398e-09
4.2827986e-09
1.7424436e-08
8.7784471e-18
1.3450873e-13
1.5742942e-12
7.426807e-12
5.1111268e-11
2.321454e-10
4.320379e-10
1.1874976e-09
4.3291208e-09
1.6297041e-08
1.1589448e-17
2.6837476e-13
2.9687395e-12
1.069607e-11
6.6337359e-11
2.6164316e-10
4.7565431e-10
1.1944949e-09
4.2154978e-09
1.543296e-08
1.4686541e-17
4.2391908e-13
5.3058024e-12
1.7703701e-11
8.3954186e-11
2.9274535e-10
5.1774852e-10
1.1583236e-09
3.9816897e-09
1.4211799e-08
1.7627574e-17
6.2378758e-13
6.5131568e-12
2.6245048e-11
1.9850833e-10
3.2457565e-10
5.6109614e-10
1.0699701e-09
3.7600748e-09
1.2668212e-08
1.9510131e-17
8.7834189e-13
7.8970195e-12
3.6216729e-11
2.2280802e-10
3.5716438e-10
6.0257945e-10
1.1301864e-09
3.3280159e-09
1.0823247e-08
1.0201049e-14
1.1932748e-12
9.4620496e-12
4.6764666e-11
2.4882013e-10
3.9111485e-10
6.4129492e-10
1.1871716e-09
2.6952352e-09
8.6756514e-09
2.5266908e-14
1.7109553e-12
1.120877e-11
5.7097682e-11
2.7553944e-10
4.2507768e-10
6.7616686e-10
1.2474382e-09
2.5863028e-09
6.3678174e-09
4.4637995e-14
2.3494757e-12
1.3135802e-11
6.8488144e-11
3.0411948e-10
4.6058015e-10
7.0744568e-10
1.2909189e-09
2.6463264e-09
6.2812417e-09
6.853603e-14
3.0920625e-12
1.5236702e-11
8.0682412e-11
3.3404874e-10
4.9678004e-10
7.5226306e-10
1.3104566e-09
2.6612389e-09
6.1330249e-09
9.7025353e-14
3.935081e-12
1.7512336e-11
9.3765259e-11
3.6510167e-10
5.3450257e-10
7.9716349e-10
1.3068495e-09
2.6162681e-09
5.8691445e-09
1.2996349e-13
4.8732399e-12
1.9911907e-11
1.0733894e-10
3.9760513e-10
5.7370931e-10
8.4181831e-10
1.2998327e-09
2.5133025e-09
5.4930947e-09
1.6715531e-13
5.8900931e-12
2.3929887e-11
1.2151762e-10
4.3182745e-10
6.139158e-10
8.8785964e-10
1.3193154e-09
2.36869e-09
5.0050805e-09
2.0822689e-13
7.0047022e-12
2.9637338e-11
1.3580906e-10
4.6751705e-10
6.5527308e-10
9.3291893e-10
1.3647193e-09
2.1888142e-09
4.4030259e-09
2.5271514e-13
9.0175795e-12
3.5436082e-11
1.5021901e-10
5.0463147e-10
6.9771414e-10
9.7339551e-10
1.4040446e-09
2.1514922e-09
3.7094582e-09
3.4988626e-13
1.1070996e-11
4.1156799e-11
1.6446155e-10
5.4336459e-10
7.4112709e-10
1.0137846e-09
1.451814e-09
2.180917e-09
3.5301557e-09
4.7968459e-13
1.3105917e-11
4.666645e-11
1.7841414e-10
5.8389263e-10
7.8764614e-10
1.0657565e-09
1.487347e-09
2.1928622e-09
3.4993007e-09
6.1404137e-13
1.5067469e-11
5.1796931e-11
1.918164e-10
6.261496e-10
8.3551517e-10
1.1157147e-09
1.5107503e-09
2.206152e-09
3.4472869e-09
7.4859088e-13
1.6896151e-11
5.637778e-11
2.0442791e-10
6.7001634e-10
8.8240172e-10
1.1635202e-09
1.5377196e-09
2.2063483e-09
3.3748916e-09
8.7961575e-13
1.8538233e-11
6.0280071e-11
2.1613445e-10
7.177931e-10
9.311703e-10
1.2132232e-09
1.593606e-09
2.1749594e-09
3.2550086e-09
1.0052269e-12
1.9946961e-11
6.3365844e-11
2.2677193e-10
7.6618276e-10
9.8398911e-10
1.2649696e-09
1.6449158e-09
2.1570343e-09
3.0961378e-09
1.123211e-12
2.1078788e-11
6.5474094e-11
2.365209e-10
8.1402807e-10
1.035948e-09
1.3188288e-09
1.6917357e-09
2.1952927e-09
2.9304685e-09
1.2305729e-12
2.1882372e-11
6.6547861e-11
2.4464736e-10
8.6712182e-10
1.0885839e-09
1.3716742e-09
1.7361163e-09
2.238908e-09
2.9537675e-09
1.3232504e-12
2.2337936e-11
6.6518969e-11
2.50819e-10
9.220573e-10
1.1478124e-09
1.4315654e-09
1.7840766e-09
2.2748058e-09
2.9732891e-09
1.3981746e-12
2.2411592e-11
6.5102791e-11
2.5613558e-10
9.7638121e-10
1.2062042e-09
1.4902931e-09
1.8418868e-09
2.3060802e-09
2.9832676e-09
1.4537205e-12
2.2024254e-11
6.2406634e-11
2.5956009e-10
1.0366051e-09
1.2637832e-09
1.5478842e-09
1.8978983e-09
2.3285167e-09
2.9754831e-09
1.4876426e-12
2.1192906e-11
5.9905386e-11
2.6073836e-10
1.0989102e-09
1.3293738e-09
1.6104517e-09
1.9536885e-09
2.3779905e-09
2.9557023e-09
1.4956312e-12
1.9849632e-11
6.2030871e-11
2.6095057e-10
1.1605373e-09
1.3948402e-09
1.6769216e-09
2.0124562e-09
2.4326144e-09
2.9529812e-09
1.466176e-12
1.9868796e-11
6.4122943e-11
2.5820614e-10
1.2285828e-09
1.4586197e-09
1.7416538e-09
2.0709256e-09
2.4836383e-09
2.9962678e-09
1.3902523e-12
1.9694038e-11
6.586152e-11
2.549681e-10
5.0787232e-10
1.5307081e-09
1.8046944e-09
2.1359017e-09
2.5352208e-09
3.0386453e-09
1.3126434e-12
1.9487292e-11
6.7711579e-11
2.5250498e-10
5.0244071e-10
1.6054045e-09
1.876846e-09
2.2022919e-09
2.5823645e-09
3.0734721e-09
1.2328044e-12
1.9211028e-11
6.9748202e-11
2.4192986e-10
4.9372187e-10
1.6795565e-09
1.9503296e-09
2.2708155e-09
2.6458696e-09
3.1048951e-09
1.1318584e-12
1.8812199e-11
7.1578041e-11
2.2756423e-10
4.8155709e-10
1.757937e-09
2.0268132e-09
2.3402618e-09
2.7101854e-09
3.143166e-09
1.0026587e-12
1.8229921e-11
7.3267594e-11
2.1078639e-10
4.6589978e-10
1.838943e-09
2.1054048e-09
2.414847e-09
2.7757442e-09
3.1978989e-09
8.6649684e-13
1.7469104e-11
7.4910381e-11
1.9089213e-10
4.4733333e-10
1.9239454e-09
2.1851496e-09
2.489895e-09
2.8391344e-09
3.2539535e-09
8.5097625e-13
1.6439798e-11
7.6185607e-11
1.6593636e-10
4.2945593e-10
7.1671478e-10
2.2709962e-09
2.5663082e-09
2.908412e-09
3.3079153e-09
8.3497532e-13
1.5349746e-11
7.7553263e-11
1.4321611e-10
4.1213257e-10
6.9061877e-10
2.3583687e-09
2.6477144e-09
2.9821611e-09
3.3602165e-09
8.1999046e-13
1.422474e-11
7.8941024e-11
1.1934462e-10
3.9146616e-10
6.5881226e-10
2.4490069e-09
2.7318815e-09
3.0567146e-09
3.4265044e-09
8.0012128e-13
1.3442093e-11
8.0234542e-11
1.1292627e-10
3.6163161e-10
6.2219927e-10
2.5423875e-09
2.8180742e-09
3.1316358e-09
3.4937278e-09
7.7239098e-13
1.2861247e-11
8.131854e-11
1.1275325e-10
3.1875012e-10
5.8771245e-10
8.7662624e-10
2.907346e-09
3.2109644e-09
3.5613583e-09
7.4140518e-13
1.2240126e-11
7.1360145e-11
1.1267866e-10
2.7975853e-10
5.5349815e-10
8.285982e-10
2.9999065e-09
3.293659e-09
3.6265578e-09
7.0798311e-13
1.1581533e-11
5.9294724e-11
1.1242742e-10
2.3724234e-10
5.107418e-10
7.8013237e-10
1.0743521e-09
3.3816277e-09
3.7022433e-09
6.7358793e-13
1.0902444e-11
4.6937113e-11
1.1218171e-10
1.9541871e-10
4.719638e-10
7.3187759e-10
1.0109479e-09
3.4714327e-09
3.7802555e-09
6.3795116e-13
1.0209674e-11
4.031539e-11
1.1188788e-10
1.5281351e-10
4.1588586e-10
6.7691474e-10
9.4046211e-10
3.5642093e-09
3.8586489e-09
5.9768744e-13
9.4776643e-12
3.6884089e-11
1.1144479e-10
1.4447212e-10
3.5616752e-10
6.1680508e-10
8.7282358e-10
1.1344268e-09
3.9423329e-09
5.5266815e-13
8.7076175e-12
3.330404e-11
1.1085201e-10
1.4211668e-10
2.958784e-10
5.582375e-10
7.9787094e-10
1.0567904e-09
1.3133283e-09
5.0435273e-13
7.9041403e-12
2.966825e-11
1.1021756e-10
1.3975871e-10
2.3646004e-10
4.8733291e-10
7.2643482e-10
9.6953682e-10
1.2213588e-09
4.52707e-13
6.8542329e-12
2.6013475e-11
1.0197635e-10
1.3740469e-10
1.7721913e-10
4.1222541e-10
6.5385787e-10
8.7948065e-10
1.1159545e-09
3.9631798e-13
5.8009218e-12
2.2369154e-11
8.085746e-11
1.3507411e-10
1.6637494e-10
3.3818915e-10
5.7722649e-10
7.9303274e-10
1.0116567e-09
3.3407597e-13
4.7274626e-12
1.944458e-11
5.9403852e-11
1.3261149e-10
1.6187921e-10
2.6322347e-10
4.8453493e-10
7.0394722e-10
9.0470564e-10
2.6800555e-13
3.6441726e-12
1.7623694e-11
4.8770562e-11
1.3005053e-10
1.5731328e-10
1.8828317e-10
3.9281552e-10
6.0723345e-10
8.0199586e-10
2.012704e-13
2.5904198e-12
1.5860941e-11
4.2681006e-11
1.2764121e-10
1.5298101e-10
1.8185624e-10
3.0680692e-10
5.0572708e-10
7.0851138e-10
1.3449315e-13
1.6448398e-12
1.4179405e-11
3.6875276e-11
1.0656561e-10
1.490257e-10
1.7596554e-10
2.2582778e-10
4.1126985e-10
6.016582e-10
6.8166128e-14
1.4756586e-12
1.2600211e-11
3.1421768e-11
7.9359303e-11
1.4540149e-10
1.7056976e-10
1.9842547e-10
3.2249697e-10
5.0067477e-10
1.0048941e-14
1.3170589e-12
1.1138226e-11
2.63053e-11
5.8076094e-11
1.4209712e-10
1.6553678e-10
1.9165437e-10
2.3852342e-10
4.0481018e-10
2.3736398e-14
1.1666716e-12
9.7039685e-12
2.2452782e-11
5.0918662e-11
1.3351525e-10
1.6096587e-10
1.8542585e-10
2.1222224e-10
3.1372616e-10
4.1965504e-14
1.0243793e-12
8.0688926e-12
2.0214015e-11
4.421262e-11
1.029141e-10
1.5675391e-10
1.7964298e-10
2.046221e-10
2.3198885e-10
6.4551941e-14
8.8703998e-13
6.5358185e-12
1.8135038e-11
3.7912282e-11
7.3936408e-11
1.5288717e-10
1.7417496e-10
1.9773636e-10
2.2332546e-10
9.2896544e-14
7.5550126e-13
5.0953549e-12
1.6190161e-11
3.1978327e-11
5.9665554e-11
1.4008035e-10
1.6921681e-10
1.9121777e-10
2.1514981e-10
1.2669422e-13
6.2884471e-13
3.7451993e-12
1.4379674e-11
2.6369386e-11
5.1974677e-11
1.0698832e-10
1.6460252e-10
1.8519867e-10
2.0763992e-10
1.6610637e-13
5.0579875e-13
2.4719181e-12
1.2687688e-11
2.3528319e-11
4.4753886e-11
7.5666057e-11
1.6037992e-10
1.7956924e-10
2.0080935e-10
2.118857e-13
3.8525422e-13
2.0566008e-12
1.0969949e-11
2.1093591e-11
3.7971404e-11
6.2870404e-11
1.2722911e-10
1.7452314e-10
1.9442155e-10
2.6297856e-13
2.6399507e-13
1.8266182e-12
9.0541184e-12
1.8848902e-11
3.1631017e-11
5.4625694e-11
9.3040555e-11
1.6992208e-10
1.8847466e-10
3.1956629e-13
1.4464433e-13
1.6088269e-12
7.2689533e-12
1.6775036e-11
2.6980348e-11
4.6912352e-11
7.0559215e-11
1.3550852e-10
1.8312779e-10
3.8021449e-13
4.0725282e-14
1.4004341e-12
5.6080089e-12
1.4865456e-11
2.426926e-11
3.9742753e-11
6.1631697e-11
9.9598417e-11
1.7288706e-10
4.4315575e-13
1.099681e-13
1.2009317e-12
4.0621938e-12
1.3112495e-11
2.1775006e-11
3.3092712e-11
5.3314833e-11
7.5476559e-11
1.3381306e-10
5.0706106e-13
1.8359754e-13
1.0082409e-12
2.8767409e-12
1.0950578e-11
1.9494317e-11
2.8830846e-11
4.5590021e-11
6.6176354e-11
9.7251476e-11
5.7123814e-13
2.6061454e-13
8.1804726e-13
2.577761e-12
8.940007e-12
1.7425723e-11
2.60573e-11
3.8459184e-11
5.7566197e-11
7.8361305e-11
6.3439881e-13
3.3937779e-13
6.3080275e-13
2.2920757e-12
7.0847842e-12
1.555176e-11
2.3533225e-11
3.2670056e-11
4.9601715e-11
6.899092e-11
6.9474188e-13
4.172304e-13
4.4826167e-13
2.0204483e-12
5.3713668e-12
1.3451723e-11
2.1243821e-11
2.9740763e-11
4.2264237e-11
6.0324721e-11
7.5091726e-13
4.922234e-13
2.6966763e-13
1.761028e-12
3.8368475e-12
1.126884e-11
1.9189564e-11
2.7103858e-11
3.6068902e-11
5.2358297e-11
8.0235802e-13
5.632479e-13
9.3391234e-14
1.507994e-12
3.4824782e-12
9.2541064e-12
1.7369384e-11
2.4736079e-11
3.3122294e-11
4.5060502e-11
8.4856315e-13
6.2934082e-13
1.978355e-13
1.2609767e-12
3.1449995e-12
7.404986e-12
1.5144297e-11
2.2621217e-11
3.048206e-11
3.939102e-11
8.8871834e-13
6.893151e-13
2.9648756e-13
1.021304e-12
2.8250872e-12
5.7062498e-12
1.2934576e-11
2.0750782e-11
2.8148801e-11
3.6535455e-11
9.2310818e-13
7.4288312e-13
3.8752492e-13
7.8902633e-13
2.5187766e-12
4.8126803e-12
1.0906046e-11
1.8881804e-11
2.6106572e-11
3.4033062e-11
9.5237823e-13
7.9049643e-13
4.7090216e-13
5.611594e-13
2.2230678e-12
4.4347594e-12
9.0578728e-12
1.6575582e-11
2.4337243e-11
3.1850357e-11
9.7716635e-13
8.3255465e-13
5.4668187e-13
3.3705684e-13
1.940306e-12
4.084833e-12
7.3799474e-12
1.4484591e-11
2.2815884e-11
3.0017053e-11
9.9824414e-13
8.6958729e-13
6.1481191e-13
2.4244031e-13
1.6737829e-12
3.7588383e-12
6.4592255e-12
1.2590354e-11
2.0502767e-11
2.8493116e-11
1.016806e-12
9.0270659e-13
6.7629371e-13
3.4450254e-13
1.4208218e-12
3.4534268e-12
6.0934905e-12
1.0897242e-11
1.8467263e-11
2.7283792e-11
1.0341877e-12
9.3321508e-13
7.3249616e-13
4.3770163e-13
1.1822991e-12
3.1754025e-12
5.7738241e-12
9.4030128e-12
1.6666538e-11
2.5272276e-11
1.0518949e-12
9.6263372e-13
7.8496195e-13
5.2345177e-13
9.6370838e-13
2.931363e-12
5.4997029e-12
8.7900332e-12
1.5108736e-11
2.3430056e-11
1.0716049e-12
9.9272102e-13
8.3562369e-13
6.0394059e-13
7.6646545e-13
2.7233403e-12
5.2773202e-12
8.5667585e-12
1.3802502e-11
2.1894137e-11
1.0950208e-12
1.0252773e-12
8.8650568e-13
6.8142558e-13
5.9752847e-13
2.5610598e-12
5.1227441e-12
8.4397476e-12
1.2753674e-11
2.0685401e-11
1.123975e-12
1.0624405e-12
9.3984123e-13
7.5838632e-13
5.195623e-13
2.4610869e-12
5.0563304e-12
8.4236688e-12
1.2667835e-11
1.9850425e-11
1.1611886e-12
1.1069045e-12
9.986231e-13
8.3818013e-13
6.2681709e-13
2.4364461e-12
5.0937342e-12
8.5442925e-12
1.2912854e-11
1.9393515e-11
1.2097942e-12
1.161918e-12
1.0664914e-12
9.2504934e-13
7.386858e-13
2.510533e-12
5.2674084e-12
8.8477285e-12
1.3399983e-11
1.9381624e-11
1.2734824e-12
1.2313851e-12
1.1476074e-12
1.0234945e-12
8.6011764e-13
2.726316e-12
5.62934e-12
9.396333e-12
1.4194821e-11
2.0190834e-11
1.3575884e-12
1.320845e-12
1.2479287e-12
1.1401099e-12
9.9854867e-13
3.1356045e-12
6.2425062e-12
1.0264962e-11
1.5389009e-11
2.1809714e-11
1.469502e-12
1.4379247e-12
1.3755622e-12
1.2837147e-12
1.2492809e-12
3.8171005e-12
7.2019322e-12
1.156674e-11
1.7125058e-11
2.4115791e-11
1.6198139e-12
1.5935099e-12
1.5419993e-12
1.4666986e-12
2.0555101e-12
4.9025319e-12
8.6463407e-12
1.3465928e-11
1.959918e-11
2.7387802e-11
1.8242624e-12
1.80374e-12
1.7642061e-12
1.7086155e-12
3.3395374e-12
6.5612711e-12
1.0776754e-11
1.6196732e-11
2.3086342e-11
3.196032e-11
2.1105647e-12
2.0980465e-12
2.0754031e-12
2.5853844e-12
5.3418741e-12
9.0469565e-12
1.3885242e-11
2.0095627e-11
2.800836e-11
3.8406531e-11
2.5238258e-12
2.5220202e-12
2.8560879e-12
5.151941e-12
8.3917847e-12
1.2734997e-11
1.8395139e-11
2.5651969e-11
3.5188895e-11
4.7407505e-11
3.7324326e-12
4.5850695e-12
6.3504862e-12
9.1060673e-12
1.2984166e-11
1.8172091e-11
2.4983179e-11
3.3873809e-11
4.5395141e-11
6.0001796e-11
8.5485335e-12
9.5947994e-12
1.1766748e-11
1.5157286e-11
1.9932804e-11
2.6326503e-11
3.4789545e-11
4.5821485e-11
5.9904558e-11
7.7760731e-11
1.6140688e-11
1.7454947e-11
2.0177854e-11
2.442158e-11
3.0384535e-11
3.8581557e-11
4.9294081e-11
6.3149399e-11
8.0969514e-11
1.0376964e-10
2.7831974e-11
2.950321e-11
3.3029527e-11
3.8611411e-11
4.6523997e-11
5.7150158e-11
7.1025787e-11
8.883987e-11
1.1183272e-10
1.421672e-10
4.6476841e-11
4.8746601e-11
5.3463313e-11
6.0824712e-11
7.1182463e-11
8.502999e-11
1.0302003e-10
1.2709824e-10
1.5887867e-10
1.9908647e-10
7.5350147e-11
7.8403174e-11
8.4753096e-11
9.4655377e-11
1.085699e-10
1.2739911e-10
1.5317648e-10
1.8636106e-10
2.2841018e-10
2.8121659e-10
1.2016282e-10
1.2427487e-10
1.3281463e-10
1.4699112e-10
1.6703442e-10
1.9428539e-10
2.2985237e-10
2.7544579e-10
3.3259813e-10
4.0860904e-10
1.9380515e-10
2.000443e-10
2.1304946e-10
2.333486e-10
2.6189774e-10
3.0003755e-10
3.4953787e-10
4.1443789e-10
5.0189333e-10
6.0857817e-10
3.0716577e-10
3.1599382e-10
3.3439435e-10
3.6306385e-10
4.03281e-10
4.5777056e-10
5.3674718e-10
6.3792762e-10
7.5868709e-10
9.0664101e-10
4.7994217e-10
4.9243809e-10
5.1981659e-10
5.6612519e-10
6.3138202e-10
7.1874844e-10
8.3236684e-10
9.7632055e-10
1.1440315e-09
1.3677811e-09
7.6325953e-10
7.8387688e-10
8.268984e-10
8.9398366e-10
9.8816957e-10
1.1136938e-09
1.2761087e-09
1.4817621e-09
1.7625177e-09
2.1259772e-09
1.194676e-09
1.2242652e-09
1.2859447e-09
1.3818861e-09
1.5161185e-09
1.6942467e-09
1.9442552e-09
2.3098984e-09
2.7441157e-09
3.2590641e-09
1.8118656e-09
1.8527437e-09
1.9376883e-09
2.0693467e-09
2.2660568e-09
2.5743084e-09
2.9724982e-09
3.4772463e-09
4.1084019e-09
4.8154726e-09
2.6606014e-09
2.7254744e-09
2.8749803e-09
3.1072604e-09
3.431863e-09
3.8619603e-09
4.4146087e-09
5.1110965e-09
5.9773511e-09
7.0442539e-09
3.8875902e-09
3.9835119e-09
4.1815762e-09
4.4980127e-09
4.9389532e-09
5.5211587e-09
6.2662622e-09
7.2011668e-09
8.3585068e-09
9.7771626e-09
5.3704253e-09
5.4976229e-09
5.7596219e-09
6.164006e-09
6.7244215e-09
7.4799562e-09
8.4557974e-09
9.6770143e-09
1.11846e-08
1.3027298e-08
6.9406412e-09
7.1045047e-09
7.4414334e-09
7.9610359e-09
8.6804487e-09
9.6230767e-09
1.0818923e-08
1.2332028e-08
1.4250338e-08
1.6594207e-08
8.2923499e-09
8.4978826e-09
8.9199268e-09
9.5709133e-09
1.0472676e-08
1.1655021e-08
1.3156186e-08
1.5023456e-08
1.7313884e-08
2.0095108e-08
9.0834882e-09
9.2501514e-09
9.6731109e-09
1.0466337e-08
1.1567896e-08
1.3016736e-08
1.4862941e-08
1.716863e-08
2.000903e-08
2.347366e-08
9.965048e-09
1.0109261e-08
1.0453044e-08
1.1077409e-08
1.1937586e-08
1.3057898e-08
1.5202364e-08
1.7898705e-08
2.1220654e-08
2.5436612e-08
1.180365e-08
1.1984688e-08
1.2356891e-08
1.2927236e-08
1.3709619e-08
1.4723073e-08
1.5991908e-08
1.7546213e-08
2.0426118e-08
2.5332222e-08
1.3324352e-08
1.3541748e-08
1.3986232e-08
1.4666301e-08
1.559813e-08
1.6803766e-08
1.8311376e-08
2.0155628e-08
2.2377807e-08
2.5026678e-08
1.4015598e-08
1.41823e-08
1.4590778e-08
1.5397199e-08
1.6501484e-08
1.7929452e-08
1.9714023e-08
2.1907048e-08
2.4713806e-08
2.8091783e-08
1.5626913e-08
1.5821508e-08
1.6219211e-08
1.6825857e-08
1.7702004e-08
1.8845058e-08
2.0271713e-08
2.2581904e-08
2.5928323e-08
2.9960371e-08
1.6999738e-08
1.72405e-08
1.7734288e-08
1.8489456e-08
1.9523016e-08
2.0858264e-08
2.2525014e-08
2.4559994e-08
2.7007324e-08
2.9920043e-08
1.785945e-08
1.8141615e-08
1.871891e-08
1.960174e-08
2.081048e-08
2.2372942e-08
2.4324689e-08
2.6709508e-08
2.9579979e-08
3.2999388e-08
1.9533602e-08
1.9765441e-08
2.0242173e-08
2.0970376e-08
2.1964846e-08
2.3245962e-08
2.5409945e-08
2.8217373e-08
3.1601834e-08
3.5640219e-08
2.1427115e-08
2.1697823e-08
2.225417e-08
2.3104182e-08
2.4265527e-08
2.5762503e-08
2.7626238e-08
2.9895088e-08
3.2668083e-08
3.746742e-08
2.3153881e-08
2.3470135e-08
2.4119901e-08
2.5113092e-08
2.6471038e-08
2.8223029e-08
3.040657e-08
3.3067856e-08
3.6262361e-08
4.0057103e-08
2.4679961e-08
2.4955132e-08
2.570874e-08
2.6868712e-08
2.8456442e-08
3.050771e-08
3.3068302e-08
3.6194577e-08
3.995415e-08
4.4428682e-08
2.7720951e-08
2.8025264e-08
2.8650415e-08
2.9603608e-08
3.0902147e-08
3.2569887e-08
3.5415018e-08
3.908407e-08
4.3508742e-08
4.8790057e-08
3.1029027e-08
3.1387932e-08
3.2125849e-08
3.325157e-08
3.4786101e-08
3.6758398e-08
3.9205509e-08
4.2173007e-08
4.6842359e-08
5.2831879e-08
3.4474852e-08
3.4897554e-08
3.5767587e-08
3.7095799e-08
3.8907896e-08
4.1239313e-08
4.4135398e-08
4.7651916e-08
5.1855671e-08
5.7418409e-08
3.7876498e-08
3.8371956e-08
3.9393213e-08
4.0953875e-08
4.3085739e-08
4.5832622e-08
4.9250578e-08
5.34085e-08
5.8388885e-08
6.429147e-08
4.1721157e-08
4.2276184e-08
4.3415273e-08
4.5152139e-08
4.7518766e-08
5.0559072e-08
5.4329136e-08
5.9079974e-08
6.4948802e-08
7.1925901e-08
4.7579655e-08
4.8031402e-08
4.8965573e-08
5.0389929e-08
5.278511e-08
5.6408172e-08
6.0908442e-08
6.6371979e-08
7.2901458e-08
8.0620985e-08
5.3730521e-08
5.4262317e-08
5.5364934e-08
5.704793e-08
5.9340439e-08
6.22831e-08
6.7263227e-08
7.3748572e-08
8.1523724e-08
9.0745943e-08
6.1399672e-08
6.1987489e-08
6.3201423e-08
6.5051016e-08
6.7565562e-08
7.0785808e-08
7.4763845e-08
8.0966164e-08
8.9580626e-08
1.0011708e-07
6.9693565e-08
7.0390098e-08
7.1832395e-08
7.4032428e-08
7.7026984e-08
8.0867297e-08
8.5618869e-08
9.1361932e-08
1.0034688e-07
1.1261224e-07
7.8673733e-08
7.9440414e-08
8.1022469e-08
8.3431799e-08
8.6705303e-08
9.0894163e-08
9.6063753e-08
1.0257917e-07
1.1069218e-07
1.2425033e-07
8.9483166e-08
9.03957e-08
9.2284411e-08
9.5164854e-08
9.9083814e-08
1.0410652e-07
1.1031624e-07
1.1781478e-07
1.2672314e-07
1.3780116e-07
9.8247333e-08
9.9827761e-08
1.0309339e-07
1.0658714e-07
1.1086846e-07
1.1634384e-07
1.2322093e-07
1.3212551e-07
1.4274013e-07
1.5525231e-07
1.0798221e-07
1.0980659e-07
1.1358398e-07
1.1940779e-07
1.2657486e-07
1.3316372e-07
1.4130389e-07
1.5112598e-07
1.6278498e-07
1.764673e-07
1.1701443e-07
1.1900682e-07
1.2312267e-07
1.2945785e-07
1.3819801e-07
1.485512e-07
1.5741585e-07
1.6841918e-07
1.8231364e-07
1.9868739e-07
1.2804889e-07
1.3034413e-07
1.350957e-07
1.4242054e-07
1.5254571e-07
1.6577822e-07
1.7995111e-07
1.9285215e-07
2.0815162e-07
2.2609596e-07
1.3924358e-07
1.4174513e-07
1.469221e-07
1.5491983e-07
1.6596015e-07
1.8035787e-07
1.9850657e-07
2.1489941e-07
2.3149852e-07
2.5140676e-07
1.5028642e-07
1.5307416e-07
1.5885312e-07
1.6778238e-07
1.8020546e-07
1.9645956e-07
2.1699363e-07
2.4149609e-07
2.6090474e-07
2.8360389e-07
1.6338409e-07
1.6648298e-07
1.7291017e-07
1.8284412e-07
1.9662428e-07
2.1484279e-07
2.378758e-07
2.6633024e-07
2.9384842e-07
3.199168e-07
1.7802641e-07
1.8140339e-07
1.8839249e-07
1.9917896e-07
2.1425583e-07
2.344699e-07
2.6028056e-07
2.9220309e-07
3.301588e-07
3.6010149e-07
1.9451144e-07
1.9828117e-07
2.0608656e-07
2.1813525e-07
2.348222e-07
2.5669042e-07
2.84785e-07
3.1972547e-07
3.6322522e-07
4.0407558e-07
2.1222738e-07
2.1643005e-07
2.2513645e-07
2.3857891e-07
2.5720035e-07
2.8160974e-07
3.1285716e-07
3.5197012e-07
3.9938499e-07
4.5191557e-07
2.3096269e-07
2.3563767e-07
2.4532895e-07
2.6029642e-07
2.8103656e-07
3.082322e-07
3.4275936e-07
3.867553e-07
4.4017706e-07
5.0413749e-07
2.5224309e-07
2.5734304e-07
2.6789285e-07
2.8415896e-07
3.0665186e-07
3.3608756e-07
3.7446505e-07
4.2326741e-07
4.8334544e-07
5.5538965e-07
2.76035e-07
2.8173173e-07
2.9352273e-07
3.1170499e-07
3.3684962e-07
3.6974026e-07
4.1137889e-07
4.6376304e-07
5.2925891e-07
6.0880014e-07
3.0083448e-07
3.0717696e-07
3.2031467e-07
3.4057885e-07
3.6860878e-07
4.0528109e-07
4.5171696e-07
5.0930751e-07
5.8351569e-07
6.7220046e-07
3.2899458e-07
3.3591321e-07
3.5021349e-07
3.7223031e-07
4.0261452e-07
4.4225744e-07
4.9321917e-07
5.5723834e-07
6.396364e-07
7.4001136e-07
3.6058951e-07
3.6832882e-07
3.8433695e-07
4.0898667e-07
4.4300632e-07
4.8739236e-07
5.4341452e-07
6.1262213e-07
7.0073307e-07
8.1023651e-07
3.9251688e-07
4.0113339e-07
4.189759e-07
4.4646304e-07
4.8441547e-07
5.3395459e-07
5.9650649e-07
6.7380968e-07
7.708143e-07
8.9577929e-07
4.3244517e-07
4.4189725e-07
4.6142302e-07
4.9143775e-07
5.3276669e-07
5.8653646e-07
6.5417792e-07
7.3743555e-07
8.4011302e-07
9.8201094e-07
4.7330369e-07
4.8388945e-07
5.0578293e-07
5.3945361e-07
5.8583812e-07
6.4621322e-07
7.2219659e-07
8.1575515e-07
9.291972e-07
1.0827418e-06
5.201718e-07
5.3176595e-07
5.5568909e-07
5.9240117e-07
6.4283654e-07
7.0826817e-07
7.9030818e-07
8.9374352e-07
1.020973e-06
1.1914122e-06
5.7228801e-07
5.8536171e-07
6.1237303e-07
6.5384923e-07
7.1086457e-07
7.8488039e-07
8.7774182e-07
9.916817e-07
1.1293144e-06
1.3100726e-06
6.2865039e-07
6.429785e-07
6.7251299e-07
7.1776356e-07
7.797936e-07
8.6005009e-07
9.6309279e-07
1.0916214e-06
1.247194e-06
1.4467463e-06
6.9475795e-07
7.1102805e-07
7.4461583e-07
7.9611873e-07
8.6678273e-07
9.5829968e-07
1.072798e-06
1.212842e-06
1.38143e-06
1.5900697e-06
7.6401549e-07
7.8188967e-07
8.1870261e-07
8.7502389e-07
9.5207816e-07
1.05153e-06
1.1808504e-06
1.3399736e-06
1.5320742e-06
1.7613538e-06
8.470612e-07
8.6748341e-07
9.0961816e-07
9.7415468e-07
1.0625644e-06
1.1768425e-06
1.3194903e-06
1.4935108e-06
1.7024043e-06
1.9502463e-06
9.3378047e-07
9.5630245e-07
1.002658e-06
1.0734952e-06
1.1702507e-06
1.2948745e-06
1.4526363e-06
1.6483366e-06
1.8835863e-06
2.1630776e-06
1.0301069e-06
1.055552e-06
1.1079734e-06
1.1881244e-06
1.2976707e-06
1.438869e-06
1.61475e-06
1.8342162e-06
2.0978372e-06
2.4107828e-06
1.141111e-06
1.169804e-06
1.2289102e-06
1.3192535e-06
1.4426741e-06
1.6016642e-06
1.7993426e-06
2.0448619e-06
2.3464887e-06
2.7053914e-06
1.2707061e-06
1.3035652e-06
1.3713374e-06
1.4750209e-06
1.6168211e-06
1.799722e-06
2.0274514e-06
2.3044605e-06
2.6359035e-06
3.0277731e-06
1.4131157e-06
1.4497527e-06
1.5251202e-06
1.640136e-06
1.7969354e-06
1.9984109e-06
2.2481757e-06
2.5505452e-06
2.9128576e-06
3.36746e-06
1.5570556e-06
1.5989339e-06
1.6853376e-06
1.817533e-06
1.9983301e-06
2.2315304e-06
2.5218803e-06
2.875045e-06
3.2975834e-06
3.7970888e-06
1.7429796e-06
1.7900002e-06
1.8867459e-06
2.0343742e-06
2.2356027e-06
2.4941128e-06
2.8145015e-06
3.2022535e-06
3.6637167e-06
4.2062776e-06
1.9187809e-06
1.9707408e-06
2.0774207e-06
2.239873e-06
2.4623785e-06
2.7596799e-06
3.1301858e-06
3.5813114e-06
4.1216531e-06
4.7611686e-06
2.1458695e-06
2.2061436e-06
2.3302258e-06
2.5196396e-06
2.7779428e-06
3.1099553e-06
3.5216978e-06
4.0203637e-06
4.6142912e-06
5.3131643e-06
2.3784158e-06
2.4454598e-06
2.5831641e-06
2.7929127e-06
3.0781487e-06
3.443545e-06
3.8949415e-06
4.4393304e-06
5.1242936e-06
5.9430852e-06
2.627385e-06
2.7042011e-06
2.8624881e-06
3.1043199e-06
3.434461e-06
3.8593777e-06
4.387168e-06
5.0275334e-06
5.7917452e-06
6.6929068e-06
2.9377737e-06
3.0238863e-06
3.2008931e-06
3.4706907e-06
3.8379106e-06
4.3088465e-06
4.8913817e-06
5.5949586e-06
6.4305523e-06
7.410973e-06
3.2221708e-06
3.3283876e-06
3.5234425e-06
3.8201945e-06
4.2231493e-06
4.7438969e-06
5.4155197e-06
6.2327813e-06
7.2112663e-06
8.3691708e-06
3.56245e-06
3.7114549e-06
3.9370436e-06
4.2812756e-06
4.7505057e-06
5.3533851e-06
6.1007787e-06
7.0057529e-06
8.0835765e-06
9.3521108e-06
3.9315228e-06
4.0974541e-06
4.3730465e-06
4.754456e-06
5.2730012e-06
5.9371767e-06
6.757626e-06
7.7471503e-06
8.9207135e-06
1.0329955e-05
4.2816722e-06
4.461147e-06
4.7901962e-06
5.2155314e-06
5.8078044e-06
6.5707874e-06
7.5196381e-06
8.6726885e-06
1.0051496e-05
1.1681383e-05
4.7711843e-06
4.9728968e-06
5.3758474e-06
5.8606688e-06
6.5209931e-06
7.3687443e-06
8.4188862e-06
9.6895082e-06
1.1201871e-05
1.2980996e-05
5.2584266e-06
5.477977e-06
5.9254251e-06
6.4796515e-06
7.2057535e-06
8.1353718e-06
9.2833125e-06
1.0667422e-05
1.2308696e-05
1.4444739e-05
5.7237453e-06
5.9631517e-06
6.4696912e-06
7.1435647e-06
7.9998341e-06
9.1081844e-06
1.0494562e-05
1.2190529e-05
1.4233615e-05
1.6668268e-05
6.5748819e-06
6.8495734e-06
7.4118906e-06
8.1977252e-06
9.1656305e-06
1.0413486e-05
1.196732e-05
1.3858681e-05
1.6125041e-05
1.8810823e-05
7.4003954e-06
7.7018159e-06
8.3181145e-06
9.2124989e-06
1.028837e-05
1.1671095e-05
1.3386752e-05
1.5466847e-05
1.7948763e-05
2.0876856e-05
8.1947825e-06
8.5220663e-06
9.1906028e-06
1.0190254e-05
1.1370551e-05
1.2883699e-05
1.4755785e-05
1.7018237e-05
1.9708323e-05
2.287029e-05
8.9599285e-06
9.3122738e-06
1.0031386e-05
1.111774e-05
1.2414668e-05
1.4054149e-05
1.6077628e-05
1.85165e-05
2.1407888e-05
2.4795905e-05
9.6977276e-06
1.0074313e-05
1.0842327e-05
1.2001963e-05
1.3422729e-05
1.5184442e-05
1.7354304e-05
1.9963691e-05
2.3049554e-05
2.6683195e-05
1.0409691e-05
1.0809809e-05
1.1625283e-05
1.2856076e-05
1.4409088e-05
1.6479165e-05
1.9071033e-05
2.2246472e-05
2.6079429e-05
3.0658369e-05
1.1790033e-05
1.2251616e-05
1.3199436e-05
1.4639887e-05
1.6515471e-05
1.8830074e-05
2.1716742e-05
2.5238067e-05
2.946869e-05
3.4497846e-05
1.3383665e-05
1.3885734e-05
1.4915878e-05
1.6481338e-05
1.8554847e-05
2.1106033e-05
2.4277774e-05
2.8133341e-05
3.2747952e-05
3.8211489e-05
1.4932738e-05
1.5473979e-05
1.6583767e-05
1.8270095e-05
2.0530173e-05
2.3310203e-05
2.6757562e-05
3.0936098e-05
3.5921507e-05
4.1804196e-05
1.6440034e-05
1.7019278e-05
1.8206296e-05
2.0009753e-05
2.2445861e-05
2.5447634e-05
2.9161973e-05
3.3653198e-05
3.8997399e-05
4.5285424e-05
1.7907741e-05
1.8523841e-05
1.9785748e-05
2.1702691e-05
2.4300272e-05
2.7521463e-05
3.149448e-05
3.6288452e-05
4.1979842e-05
4.8659832e-05
1.933808e-05
1.9989975e-05
2.1324586e-05
2.3351591e-05
2.6097912e-05
2.9535471e-05
3.3759336e-05
3.8846652e-05
4.4874127e-05
5.2529909e-05
2.0732867e-05
2.1419515e-05
2.2824698e-05
2.4958479e-05
2.8088152e-05
3.2110882e-05
3.711749e-05
4.3237547e-05
5.0608994e-05
5.9397383e-05
2.3581918e-05
2.4378363e-05
2.602112e-05
2.8531537e-05
3.1960498e-05
3.6367502e-05
4.1848663e-05
4.8527734e-05
5.6544886e-05
6.6067991e-05
2.6700386e-05
2.7560834e-05
2.9333981e-05
3.2042776e-05
3.5741445e-05
4.0513414e-05
4.6454709e-05
5.3675485e-05
6.2317897e-05
7.2551867e-05
2.975097e-05
3.0673661e-05
3.2573562e-05
3.5475071e-05
3.9435514e-05
4.4554173e-05
5.0941868e-05
5.8687856e-05
6.7936044e-05
7.8858168e-05
3.2736897e-05
3.3720151e-05
3.5743344e-05
3.8832185e-05
4.3046872e-05
4.8494903e-05
5.5315902e-05
6.3571382e-05
7.3406783e-05
8.4995429e-05
3.5661157e-05