/*--------------------------------*- C++ -*----------------------------------*\
  =========                 |
  \\      /  F ield         | OpenFOAM: The Open Source CFD Toolbox
   \\    /   O peration     | Website:  https://openfoam.org
    \\  /    A nd           | Version:  7
     \\/     M anipulation  |
\*---------------------------------------------------------------------------*/
FoamFile
{
    version     2.0;
    format      ascii;
    class       volScalarField;
    location    "50000";
    object      alpha_lam;
}
// * * * * * * * * * * * * * * * * * * * * * * * * * * * * * * * * * * * * * //

dimensions      [0 2 -1 0 0 0 0];

internalField   nonuniform List<scalar> 
113400
(
0.00035470172
0.00035470172
0.00035470172
0.00035470172
0.00032324868
0.00031324083
0.00029805783
0.00027324069
0.00023002812
0.00014569332
0.0001066887
0.0001092582
0.00013496496
0.00031746408
3.413661e-05
3.6989853e-05
4.063143e-05
4.7283789e-05
5.2683836e-05
6.0767598e-05
7.0046572e-05
8.2498668e-05
9.7012055e-05
0.00010469247
0.00010419474
9.940283e-05
7.6543697e-05
2.5547204e-05
0.00034742415
0.00034102823
0.00033041961
0.00031800781
0.00029690462
0.00026624189
0.00022326826
0.00015959756
0.0001499641
0.0001436336
0.00014278779
0.00020000717
0.00024986929
7.5343487e-05
4.0032694e-05
4.4025352e-05
4.9507519e-05
5.7135926e-05
6.565205e-05
7.62598e-05
9.011911e-05
0.00010697475
0.00012783816
0.00014852614
0.00016915285
0.00019113302
0.00021664461
0.00024599292
0.00034650278
0.00033502481
0.00031495094
0.00028846784
0.00025323754
0.0002039988
0.00015846507
0.00016287591
0.00016253426
0.00017323453
0.00019290068
0.00030140591
0.00014761157
4.2743916e-05
4.3426585e-05
4.7056993e-05
5.4624992e-05
6.1727188e-05
7.249244e-05
8.4474019e-05
9.9955841e-05
0.00011802559
0.00013866147
0.00016180064
0.00018598356
0.00021146059
0.00023840698
0.00026629196
0.00034476284
0.00032783875
0.00029784349
0.00025688082
0.00020633591
0.00017520778
0.00016761317
0.00017300734
0.00017928611
0.0001898152
0.00026904258
0.00021472871
6.0659057e-05
4.2075583e-05
4.679533e-05
5.1092062e-05
6.0155681e-05
6.804281e-05
7.946112e-05
9.2315494e-05
0.00010865733
0.00012752454
0.00014733981
0.0001691962
0.0001928584
0.00021754101
0.00024282482
0.00026835427
0.00034320266
0.00032118558
0.00028302038
0.00023567129
0.00020505397
0.00018769975
0.00018699538
0.00019092478
0.00019781803
0.00023782828
0.00028195055
0.00015708037
4.3815193e-05
4.4385564e-05
4.8873348e-05
5.488528e-05
6.3690894e-05
7.3138334e-05
8.521207e-05
9.8431421e-05
0.00011390921
0.00013237277
0.00015215682
0.00017280151
0.00019447255
0.00021708914
0.0002404548
0.00026423924
0.00034277755
0.00031828638
0.00027771315
0.00024888486
0.00022202295
0.00021417549
0.00020463343
0.00020887872
0.00022250383
0.00029851426
0.00023381324
0.00010209444
4.317592e-05
4.6573062e-05
5.0139201e-05
5.8789446e-05
6.6858313e-05
7.7696691e-05
9.0212643e-05
0.00010353022
0.00011871894
0.00013607344
0.00015522531
0.00017546974
0.00019664053
0.0002184674
0.00024097819
0.00026400279
0.00034433172
0.00032395554
0.00029286992
0.00026432571
0.00024570753
0.00022764674
0.00022402896
0.00023214059
0.00026113129
0.00029276863
0.00020254488
5.1578491e-05
4.4315092e-05
4.8810974e-05
5.2625649e-05
6.2442662e-05
7.0085425e-05
8.1543035e-05
9.4305667e-05
0.00010793392
0.00012282336
0.00013882495
0.0001570851
0.00017661429
0.00019706774
0.00021835635
0.00024035337
0.00026291506
0.00034699492
0.0003309647
0.00031784985
0.00028097831
0.00025774655
0.00024818013
0.0002469455
0.00024864621
0.00030984376
0.00025434862
0.00016516176
4.7299268e-05
4.6738171e-05
5.0789395e-05
5.5669711e-05
6.5735145e-05
7.3349613e-05
8.5268206e-05
9.7966286e-05
0.00011180605
0.00012628905
0.00014232962
0.00015902728
0.0001776576
0.00019749892
0.00021817429
0.00023957833
0.00026160198
0.00035221363
0.00034590863
0.0003228773
0.00029861688
0.0002771611
0.00026649256
0.00026370226
0.00029137901
0.00030683646
0.00022185705
0.00011068672
4.6954028e-05
4.890993e-05
5.2494264e-05
5.9028621e-05
6.8699229e-05
7.6767042e-05
8.8826036e-05
0.00010152335
0.00011534521
0.00012977164
0.00014532294
0.00016199222
0.00017931095
0.00019801607
0.00021816332
0.0002390789
0.00026062255
0.000353358
0.00035043099
0.00034117747
0.0003104222
0.00029260459
0.00028617753
0.00028573543
0.00031858883
0.00028288581
0.0002067783
6.288682e-05
4.7224859e-05
5.1066182e-05
5.3730176e-05
6.2152428e-05
7.1529141e-05
7.9747866e-05
9.1883849e-05
0.00010461112
0.00011834997
0.0001327797
0.00014780679
0.00016425261
0.00018149262
0.00019938848
0.00021807061
0.00023853987
0.00025968585
0.0003551438
0.00035497244
0.00034075369
0.00032307111
0.00031101904
0.00029956734
0.00031419993
0.00032689375
0.00025426013
0.00017977118
5.2204785e-05
4.9773194e-05
5.3271079e-05
5.5841314e-05
6.5148724e-05
7.447672e-05
8.2472251e-05
9.4641921e-05
0.00010740156
0.00012097915
0.00013538739
0.00015039039
0.00016609622
0.00018322836
0.00020100615
0.00021943556
0.0002384704
0.00025879071
0.00035542946
0.00035442854
0.00034895604
0.0003354752
0.00031847857
0.00032554843
0.00033112933
0.00030792072
0.00022912648
0.00013005806
5.294852e-05
5.2156988e-05
5.5415277e-05
5.8803713e-05
6.8085149e-05
7.741444e-05
8.5218762e-05
9.7265682e-05
0.00011002801
0.00012342415
0.00013777918
0.00015271582
0.00016836652
0.00018476051
0.00020241697
0.00022071433
0.00023964692
0.00025918023
0.0003558147
0.00035585261
0.00035224778
0.00033895091
0.00034126555
0.00033104736
0.00035001577
0.00028500499
0.00021418012
8.7867954e-05
5.2924869e-05
5.4236195e-05
5.7314264e-05
6.1668185e-05
7.08699e-05
8.0246682e-05
8.8212029e-05
9.9655827e-05
0.0001123915
0.00012567154
0.00013987392
0.00015474479
0.0001703333
0.0001865304
0.00020355211
0.00022171947
0.00024051697
0.0002599272
0.00035615483
0.00035617639
0.00035305535
0.00035245853
0.00034274558
0.00034450246
0.00033248339
0.00026796989
0.00019439016
5.8265318e-05
5.3293566e-05
5.6153915e-05
5.9031055e-05
6.4375896e-05
7.3512699e-05
8.2928518e-05
9.1063569e-05
0.00010185055
0.0001145218
0.00012776309
0.00014171605
0.00015650406
0.00017200281
0.00018817919
0.00020489026
0.00022248941
0.00024114889
0.00026041821
0.00035655472
0.00035664779
0.00035670992
0.00035349933
0.00034859589
0.00035906041
0.00031591859
0.00024906364
0.0001685959
6.0476948e-05
5.5673972e-05
5.8306538e-05
6.1083965e-05
6.6909842e-05
7.6126178e-05
8.5429117e-05
9.3729973e-05
0.00010394368
0.00011642676
0.00012960636
0.00014331399
0.00015800441
0.00017339922
0.00018951838
0.00020619652
0.0002234169
0.00024152708
0.00026065263
0.00035701964
0.00035719909
0.00035740765
0.00035549001
0.00035662996
0.00036143436
0.00029953658
0.00023243241
0.0001389033
6.1838148e-05
5.8002281e-05
6.051025e-05
6.3205247e-05
6.9395548e-05
7.867818e-05
8.7904157e-05
9.6357663e-05
0.00010595327
0.00011824096
0.00013133695
0.0001449662
0.00015937222
0.00017464737
0.00019068342
0.00020728817
0.00022445143
0.00024217457
0.00026072026
0.0003575634
0.00035780697
0.00035826284
0.00035834846
0.00036104967
0.00034692597
0.00028519577
0.00021362545
0.00010997637
6.2448239e-05
6.0157353e-05
6.2670587e-05
6.5347341e-05
7.1829622e-05
8.1168833e-05
9.0341693e-05
9.8941462e-05
0.00010790779
0.00012000032
0.00013300451
0.00014655316
0.00016066766
0.00017580945
0.00019174295
0.00020825081
0.00022532003
0.00024296394
0.00026123815
0.00035816493
0.0003585056
0.00035924715
0.0003607601
0.00036269328
0.000337813
0.00027256386
0.00019893122
8.356069e-05
6.2293376e-05
6.2045036e-05
6.5020609e-05
6.7475256e-05
7.4099893e-05
8.35012e-05
9.2817558e-05
0.00010138501
0.00010972206
0.00012167245
0.00013453615
0.00014799183
0.00016196003
0.00017682777
0.00019264761
0.00020904149
0.00022599782
0.000243538
0.00026175576
0.00035881318
0.00035928069
0.00036024623
0.00036195871
0.00036427041
0.00033133058
0.00026437591
0.00018941565
6.9937934e-05
6.1901385e-05
6.3956537e-05
6.730803e-05
6.9522039e-05
7.6333496e-05
8.5587691e-05
9.5075947e-05
0.00010359042
0.00011191073
0.00012315767
0.00013584915
0.00014919291
0.0001630585
0.00017761005
0.00019330453
0.00020956875
0.00022639552
0.0002438145
0.00026195829
0.0003595321
0.00036016987
0.00036124166
0.00036318033
0.00036579062
0.00032499609
0.0002574809
0.0001788327
7.213134e-05
6.3870108e-05
6.598302e-05
6.9551251e-05
7.1592664e-05
7.8445503e-05
8.7538381e-05
9.7209536e-05
0.00010564852
0.00011412704
0.0001244859
0.00013701295
0.00015023365
0.00016398059
0.00017834379
0.00019377964
0.00020989949
0.00022657932
0.00024386554
0.00026190963
0.0003603056
0.00036109021
0.00036226832
0.00036442085
0.00036726886
0.00031933738
0.0002506162
0.00016473912
7.3929076e-05
6.6174055e-05
6.8319627e-05
7.1813247e-05
7.3692446e-05
8.0512669e-05
8.9442712e-05
9.9306973e-05
0.00010765875
0.00011627238
0.00012575567
0.00013811932
0.00015121152
0.00016482931
0.00017906922
0.00019417214
0.00021013502
0.00022665648
0.00024383052
0.00026171635
0.00036111129
0.00036204288
0.00036332773
0.00036568621
0.00036872885
0.00031471198
0.00024552121
0.00015122297
7.5523145e-05
6.8463655e-05
7.0703907e-05
7.4090199e-05
7.5803496e-05
8.2531159e-05
9.1305792e-05
0.00010121681
0.0001096274
0.00011836235
0.00012699003
0.00013919028
0.00015214805
0.00016562933
0.0001797338
0.00019463876
0.00021030302
0.00022665705
0.00024370536
0.00026141738
0.00036194669
0.0003630241
0.00036441888
0.00036697724
0.0003702055
0.00031031689
0.00024082919
0.00013938748
7.707975e-05
7.0877554e-05
7.3165561e-05
7.6368615e-05
7.8063254e-05
8.4519429e-05
9.3145871e-05
0.00010302521
0.00011170741
0.00012042639
0.00012875944
0.00014025711
0.00015308448
0.00016642119
0.00018037838
0.00019514083
0.00021044432
0.00022662296
0.00024353282
0.00026105925
0.00036281125
0.00036403285
0.0003655444
0.00036835963
0.00037172587
0.00030589365
0.00023598321
0.0001286706
7.8734786e-05
7.3517123e-05
7.5625014e-05
7.865264e-05
8.0446429e-05
8.6490275e-05
9.5069139e-05
0.00010481832
0.00011378698
0.00012245569
0.00013093396
0.00014131412
0.00015402195
0.00016720966
0.00018101653
0.00019562669
0.00021073937
0.0002265733
0.00024333796
0.00026067045
0.00036370642
0.00036509085
0.00036680388
0.00036978681
0.00036955273
0.00030186229
0.00023068191
0.00011858414
8.0434394e-05
7.618983e-05
7.8109391e-05
8.0968182e-05
8.2893067e-05
8.8455306e-05
9.7026236e-05
0.00010660052
0.00011585425
0.0001244558
0.00013305039
0.00014235805
0.00015495184
0.00016799232
0.00018164789
0.00019610172
0.00021105159
0.00022652916
0.00024313039
0.00026026378
0.00036476528
0.00036631127
0.00036811832
0.00037122282
0.00036706864
0.00029845787
0.00022469893
0.00010987498
8.278006e-05
7.8874852e-05
8.0578871e-05
8.3276263e-05
8.5359242e-05
9.0410377e-05
9.8977081e-05
0.00010837732
0.00011791955
0.00012644584
0.00013514645
0.00014340179
0.00015588066
0.00016876946
0.00018226915
0.00019656237
0.00021134265
0.00022666161
0.00024290489
0.00025983779
0.00036588
0.00036755838
0.0003694513
0.00037266497
0.00036564959
0.00029574901
0.00021929769
0.00010258096
8.5303221e-05
8.1580221e-05
8.3064681e-05
8.5801348e-05
8.7848485e-05
9.2338794e-05
0.00010090702
0.00011013913
0.00011997723
0.00012843426
0.00013719264
0.00014554876
0.00015680832
0.00016955942
0.00018289562
0.00019702264
0.00021163027
0.00022680383
0.00024274614
0.00025940382
0.00036701991
0.0003688287
0.00037080185
0.00037412119
0.00036472607
0.00029307055
0.00021521209
9.9767814e-05
8.8039883e-05
8.4301485e-05
8.5577871e-05
8.8427729e-05
9.038267e-05
9.4235123e-05
0.00010280697
0.00011187753
0.00012191107
0.00013038664
0.00013918098
0.00014765727
0.00015772627
0.00017035109
0.00018352906
0.00019749327
0.00021192952
0.00022695247
0.00024271224
0.00025898424
0.0003681821
0.00037011913
0.00037216735
0.00037558671
0.00036424409
0.00029124699
0.00021246901
0.00010182072
9.0970997e-05
8.7060175e-05
8.81099e-05
9.1079617e-05
9.2954102e-05
9.6164753e-05
0.00010468814
0.000113607
0.00012357545
0.00013232423
0.0001411359
0.00014972685
0.0001586512
0.00017115268
0.00018416736
0.000197973
0.00021223735
0.00022710626
0.00024267904
0.00025870396
0.00036936478
0.00037142782
0.00037354771
0.00037706352
0.00036373174
0.00028998759
0.00021124582
0.00010578965
9.3901631e-05
8.9860279e-05
9.0806182e-05
9.3756198e-05
9.5569272e-05
9.8196498e-05
0.00010657171
0.00011533994
0.00012525358
0.00013429816
0.00014310722
0.00015176794
0.00016043378
0.00017198267
0.00018484318
0.00019848861
0.00021257822
0.00022728758
0.00024266946
0.00025850001
0.0003705676
0.00037275455
0.00037494399
0.00037855609
0.00036370306
0.00028994382
0.00021093819
0.0001097638
9.6849949e-05
9.2711628e-05
9.3700544e-05
9.64794e-05
9.8219506e-05
0.00010022884
0.00010846165
0.00011719133
0.00012693684
0.00013632748
0.00014507116
0.00015375956
0.0001625027
0.00017282398
0.00018554373
0.00019903483
0.00021295296
0.00022750168
0.00024269432
0.00025832919
0.00037178915
0.00037409811
0.00037635405
0.00038006029
0.00036427082
0.00029081146
0.00021126135
0.00011376168
9.9852968e-05
9.5595851e-05
9.6640881e-05
9.9255761e-05
0.00010092269
0.00010226935
0.000110363
0.0001190575
0.00012863293
0.00013836788
0.00014703208
0.00015572969
0.00016452671
0.00017367882
0.00018626176
0.00019960204
0.00021335138
0.00022773882
0.00024274377
0.00025818383
0.00037302806
0.00037545731
0.00037777657
0.00038157388
0.0003653888
0.00029206873
0.00021188603
0.00011773514
0.00010297356
9.8781449e-05
9.961848e-05
0.0001020591
0.0001036636
0.00010434977
0.00011228242
0.00012094226
0.00013034714
0.00014036701
0.00014900063
0.00015770864
0.00016652125
0.00017520994
0.0001870046
0.00020020589
0.00021378411
0.00022800687
0.00024282401
0.00025806932
0.00037428291
0.00037683083
0.00037921863
0.00038314705
0.00036683386
0.00029356896
0.00021281753
0.00012171573
0.00010623443
0.00010213127
0.00010264036
0.00010493404
0.00010665371
0.0001073888
0.00011421379
0.0001228493
0.00013209144
0.00014202316
0.00015099329
0.00015968939
0.00016847718
0.00017727127
0.00018776665
0.00020084003
0.00021425676
0.00022831411
0.00024294531
0.00025799723
0.0003755952
0.00037828087
0.00038075776
0.00038472697
0.00036849439
0.00029522613
0.00021381095
0.00012575545
0.00010990005
0.00010554041
0.00010573978
0.00010786089
0.00010969765
0.00011043298
0.00011615833
0.00012478002
0.00013386851
0.0001437187
0.00015302231
0.00016168936
0.00017043032
0.00017930362
0.00018855826
0.00020151132
0.00021477132
0.00022866376
0.00024311187
0.00025797251
0.00037708802
0.00037981195
0.00038230655
0.00038631354
0.00037033992
0.00029700826
0.00021480991
0.0001298724
0.00011406992
0.00010900167
0.00010898512
0.00011081448
0.00011277545
0.0001135026
0.00011814366
0.00012673917
0.00013568088
0.00014545785
0.00015508793
0.00016372924
0.00017242038
0.00018134256
0.00018988788
0.00020223462
0.00021534711
0.00022907016
0.00024333537
0.00025800516
0.00037859565
0.00038135601
0.00038386518
0.0003879076
0.00037234781
0.00029870533
0.00021634729
0.00013447893
0.00011842383
0.00011248716
0.00011226696
0.0001139086
0.00011587236
0.00011660585
0.00012027263
0.00012872573
0.00013752167
0.00014723471
0.00015718359
0.00016580276
0.00017444747
0.00018337575
0.00019199767
0.00020301202
0.00021599684
0.00022954904
0.00024363372
0.00025811424
0.0003801176
0.00038291269
0.00038543367
0.00038950907
0.00037452142
0.00030038035
0.00021842332
0.00013951443
0.00012293649
0.00011599328
0.00011560741
0.00011719891
0.00011902148
0.00011974325
0.00012242343
0.00013073406
0.0001393834
0.00014904307
0.00015903869
0.0001678938
0.00017647315
0.00018540266
0.00019409579
0.00020383996
0.00021670753
0.00023009382
0.00024400464
0.0002583007
0.00038165321
0.00038448162
0.00038701211
0.00039111765
0.00037669201
0.00030258908
0.00022233198
0.00014471771
0.00012753472
0.0001195278
0.00011898815
0.00012053858
0.00012221764
0.0001229131
0.0001245951
0.00013277095
0.00014138478
0.0001508861
0.00016071773
0.00017000503
0.00017850263
0.00018743876
0.00019618928
0.00020501495
0.00021746998
0.00023070099
0.00024444016
0.00025855468
0.00038320105
0.00038606144
0.00038859757
0.00039272982
0.00037925291
0.00030567817
0.00022702862
0.0001500063
0.00013216728
0.0001230992
0.00012258604
0.00012391164
0.00012543068
0.0001260994
0.00012678927
0.00013483891
0.00014342123
0.00015277166
0.00016250005
0.00017215578
0.00018060018
0.0001895028
0.00019825133
0.0002071245
0.00021827763
0.0002313741
0.00024494443
0.00025888641
0.00038476004
0.00038765127
0.00039018972
0.00039434612
0.00038222204
0.00030946776
0.00023198702
0.00015533316
0.00013682686
0.00012671815
0.00012638856
0.00012732671
0.00012869488
0.00012951257
0.00012920329
0.00013693068
0.00014548442
0.0001546879
0.00016433631
0.00017433092
0.00018272917
0.00019156537
0.00020028625
0.00020917482
0.00021911469
0.00023208563
0.00024549794
0.00025927487
0.0003863287
0.00038924977
0.0003917868
0.00039596919
0.00038558289
0.00031353209
0.00023702801
0.00016068626
0.00014155773
0.00013044605
0.00013026159
0.00013080032
0.00013204939
0.00013300283
0.00013277095
0.00013905134
0.00014758985
0.00015664324
0.00016621205
0.00017653059
0.00018487736
0.00019364134
0.00020232912
0.00021122447
0.00022000036
0.00023284702
0.00024610331
0.00025971604
0.00038790579
0.00039085567
0.00039341305
0.00039763173
0.0003890968
0.00031766356
0.00024201536
0.0001660091
0.00014643119
0.00013452024
0.00013419858
0.00013429388
0.00013542241
0.00013649333
0.00013628892
0.00014119936
0.00014973638
0.00015864542
0.00016815307
0.00017831945
0.00018708768
0.00019575466
0.00020442487
0.00021327229
0.00022196182
0.00023366833
0.00024679081
0.00026023465
0.00038957776
0.00039253581
0.00039509178
0.00039929798
0.0003926637
0.00032179802
0.00024687841
0.00017135938
0.0001515141
0.00013865154
0.00013817636
0.00013781194
0.0001388832
0.00013997793
0.00013979638
0.00014346122
0.00015192481
0.00016069515
0.00017015556
0.0001801592
0.00018936629
0.00019791954
0.00020656131
0.00021533133
0.0002240463
0.00023454634
0.00024754938
0.00026082974
0.00039132098
0.00039422719
0.00039677839
0.0004009721
0.0003961763
0.00032581071
0.00025135261
0.00017676102
0.00015712378
0.00014282571
0.00014216021
0.00014136495
0.00014255415
0.00014349983
0.00014332447
0.00014581916
0.00015415248
0.00016278606
0.00017220827
0.00018205315
0.0001916933
0.00020012668
0.00020873415
0.00021741665
0.00022614689
0.00023548826
0.00024837776
0.00026149756
0.00039307483
0.00039592964
0.00039847465
0.00040265607
0.00039964258
0.00032965869
0.00025596093
0.00018256794
0.00016290317
0.00014703626
0.00014617739
0.00014495404
0.00014628327
0.00014707908
0.00014689826
0.00014820986
0.00015641557
0.000164908
0.0001743027
0.00018399276
0.00019405618
0.00020236891
0.00021094441
0.00021954097
0.0002282733
0.00023676325
0.00024927819
0.000262244
0.0003948395
0.00039764318
0.00040018041
0.00040434912
0.00040308473
0.00033341163
0.00026083557
0.00018876316
0.00016878702
0.00015126593
0.00015023366
0.00014870612
0.00015005284
0.00015068342
0.00015049062
0.00015063283
0.00015872122
0.00016717119
0.00017644178
0.00018597809
0.00019631892
0.00020464821
0.00021319262
0.00022171328
0.00023040537
0.00023889026
0.0002502489
0.00026308905
0.00039661561
0.00039936873
0.00040189738
0.00040605341
0.00040640296
0.0003374015
0.00026670518
0.00019509335
0.00017467876
0.00015551514
0.00015433843
0.00015265705
0.00015386791
0.00015432342
0.00015424571
0.00015309129
0.00016106425
0.00016949283
0.00017861686
0.00018800479
0.00019827221
0.00020695624
0.00021544687
0.00022388794
0.00023252971
0.00024099045
0.00025127118
0.000263998
0.00039840258
0.00040110551
0.00040362389
0.00040776652
0.00040992161
0.00034201549
0.00027287705
0.00020148201
0.00018059496
0.00015979287
0.00015851035
0.00015666114
0.00015774203
0.00015806148
0.00015811967
0.00015691192
0.00016344468
0.00017186754
0.00018084462
0.00019014757
0.00020027642
0.00020929538
0.00021772344
0.00022607667
0.00023466371
0.00024309286
0.0002523471
0.00026496581
0.00040019961
0.00040285248
0.00040536902
0.00040948585
0.00041357288
0.00034683062
0.00027902776
0.00020788901
0.00018647339
0.00016412271
0.00016303755
0.00016071731
0.00016163735
0.00016182085
0.00016198699
0.00016079981
0.00016585955
0.00017429173
0.0001831302
0.00019238309
0.00020234444
0.00021170047
0.00022004471
0.00022830301
0.00023683792
0.00024522793
0.00025364401
0.00026600747
0.00040200668
0.00040460987
0.00040713109
0.00041123742
0.00041597515
0.00035166966
0.00028500864
0.00021430125
0.00019237757
0.00016853235
0.00016761963
0.00016510982
0.00016555877
0.00016565465
0.00016585317
0.00016465921
0.00016832787
0.00017676366
0.00018547065
0.00019468233
0.00020448305
0.00021423183
0.00022243362
0.00023061768
0.00023908358
0.00024742365
0.00025581523
0.00026712024
0.00040386405
0.00040644477
0.00040897758
0.0004130019
0.00041770218
0.00035642162
0.00029068259
0.00022060771
0.00019832015
0.00017329518
0.00017223429
0.00016950567
0.00016950792
0.00016969015
0.00016973522
0.00016852425
0.00017096783
0.00017928103
0.00018785631
0.00019703686
0.00020668286
0.00021678393
0.0002248798
0.00023301485
0.00024138098
0.00024965617
0.00025800496
0.00026830505
0.00040578565
0.0004083282
0.00041083303
0.00041477384
0.00041943678
0.00036107244
0.00029610651
0.0002269289
0.0002044963
0.00017810912
0.00017687737
0.00017391431
0.00017348068
0.00017376312
0.00017365055
0.00017241533
0.00017365166
0.00018184303
0.00019028055
0.00019944004
0.00020894514
0.00021897101
0.00022738381
0.00023544861
0.00024371713
0.00025192656
0.00026022873
0.00026956003
0.00040771619
0.00041021956
0.00041269817
0.00041655668
0.00042118318
0.00036558571
0.00030124343
0.00023326876
0.00021096154
0.00018295973
0.00018152421
0.0001783466
0.0001776122
0.00017787057
0.0001775714
0.00017631639
0.00017637355
0.00018445193
0.00019277298
0.00020189986
0.00021127026
0.00022123031
0.00022995532
0.00023794359
0.00024610982
0.00025425252
0.00026250633
0.00027089084
0.0004096564
0.00041212014
0.0004145751
0.00041835468
0.00042294626
0.00036983699
0.0003064951
0.00024000981
0.00021754542
0.00018782681
0.00018618223
0.00018281536
0.00018190463
0.00018201446
0.00018151526
0.0001803311
0.0001791323
0.00018710488
0.00019541885
0.00020441015
0.0002136438
0.00022354351
0.00023257823
0.00024049385
0.0002485595
0.00025664291
0.00026482281
0.00027279554
0.00041160654
0.00041403047
0.00041646425
0.00042016799
0.00042472488
0.00037417594
0.00031223196
0.00024694373
0.00022413788
0.00019308079
0.00019086726
0.00018737953
0.00018624009
0.00018619333
0.00018551947
0.00018452902
0.00018203128
0.00018979888
0.00019810937
0.00020696218
0.00021605594
0.0002258968
0.00023523387
0.00024307941
0.00025104466
0.00025907169
0.00026715156
0.00027511245
0.000413566
0.00041594986
0.00041836443
0.00042199424
0.00042651266
0.000378752
0.00031826222
0.00025395511
0.00023061206
0.0001991865
0.00019559114
0.00019224869
0.00019063969
0.00019041452
0.00018959503
0.00018872605
0.00018624993
0.00019253449
0.00020085753
0.00020957219
0.00021859466
0.00022830214
0.00023792321
0.00024570098
0.00025356458
0.00026153349
0.00026950774
0.00027744964
0.00041553422
0.00041787735
0.00042027416
0.00042383044
0.00042829159
0.00038347674
0.00032426939
0.00026111615
0.00023697317
0.0002051735
0.00020040817
0.00019716215
0.00019506994
0.00019466565
0.00019377613
0.00019289924
0.00019037924
0.00019531171
0.00020365609
0.00021224285
0.00022122798
0.00023077537
0.000240602
0.00024837276
0.00025613536
0.00026404986
0.00027191993
0.00027984364
0.00041751138
0.00041981319
0.00042218584
0.00042565466
0.00043006716
0.00038811919
0.00033009979
0.00026859299
0.00024318742
0.0002111252
0.00020548172
0.00020209882
0.00019949767
0.00019893815
0.00019810409
0.00019706885
0.00019449755
0.00019827486
0.00020650138
0.00021495877
0.00022391447
0.00023332104
0.00024305826
0.00025111094
0.00025873935
0.00026661017
0.00027438329
0.00028229536
0.0004195051
0.00042172759
0.00042406335
0.00042748241
0.00043185632
0.00039260218
0.00033573119
0.00027574925
0.00024938771
0.00021732814
0.00021059758
0.00020704337
0.00020393777
0.00020322095
0.00020245284
0.00020126226
0.0001986376
0.000201289
0.00020939784
0.00021772628
0.0002266591
0.00023593235
0.00024559809
0.00025392472
0.00026144053
0.00026922905
0.00027690138
0.00028477908
0.00042151365
0.0004236444
0.00042595088
0.00042932336
0.00043366116
0.00039690691
0.00034114584
0.00028260966
0.00025557682
0.00022371221
0.00021573749
0.0002119692
0.0002084116
0.00020772854
0.00020683095
0.00020545062
0.00020277072
0.00020434993
0.00021234464
0.00022055546
0.00022946269
0.00023860723
0.00024820721
0.00025681157
0.00026424389
0.00027192475
0.00027952481
0.00028730942
0.00042353335
0.0004255743
0.00042785036
0.00043118039
0.00043548548
0.00040098821
0.00034624604
0.00028939964
0.00026195661
0.0002301173
0.00022087965
0.00021689155
0.00021291174
0.00021231004
0.00021122989
0.00020966702
0.00020706951
0.00020745611
0.00021534274
0.00022355023
0.0002323238
0.00024133598
0.00025087815
0.0002597593
0.00026711354
0.00027469012
0.00028222596
0.00028990577
0.00042556546
0.00042751857
0.00042976352
0.00043305546
0.00043733106
0.0004048377
0.00035135335
0.00029632025
0.00026841596
0.00023640181
0.00022601943
0.00022183327
0.00021758903
0.00021692588
0.00021564008
0.00021392026
0.0002114746
0.00021061159
0.00021839079
0.00022659912
0.00023524028
0.00024411818
0.00025360586
0.00026276003
0.00027004048
0.00027751546
0.00028498948
0.00029256612
0.0004276108
0.00042947779
0.00043169093
0.00043494814
0.00043919675
0.00040864984
0.0003565985
0.0003033687
0.00027486443
0.00024257319
0.00023116093
0.00022679711
0.0002224029
0.00022157823
0.0002200611
0.00021818459
0.0002158973
0.00021380995
0.00022148665
0.00022970042
0.00023821587
0.0002470188
0.00025639402
0.00026580801
0.00027302162
0.00028040059
0.00028781765
0.00029529584
0.00042966989
0.0004314522
0.00043363267
0.00043685734
0.00044107795
0.00041251816
0.00036194457
0.00031038095
0.00028124612
0.00024859275
0.00023633025
0.00023195076
0.00022725057
0.00022622626
0.00022451931
0.00022266592
0.00022034846
0.00021704907
0.00022468428
0.00023284931
0.00024124331
0.0002500122
0.0002592431
0.00026874435
0.00027605519
0.00028333787
0.00029070786
0.00029809986
0.00043174279
0.00043344161
0.0004355882
0.00043878242
0.00044297077
0.00041640339
0.00036728262
0.00031728004
0.00028756624
0.00025448925
0.00024152475
0.0002372183
0.00023213931
0.00023089805
0.00022902348
0.00022721882
0.00022484403
0.00022057568
0.00022801554
0.00023604892
0.00024431536
0.00025305284
0.00026215278
0.00027154781
0.00027914742
0.00028630906
0.0002936388
0.000300951
0.00043383097
0.00043545956
0.00043759364
0.00044074941
0.00044487832
0.00042023182
0.00037253131
0.00032403845
0.00029376221
0.00026042317
0.00024699533
0.00024253798
0.00023708961
0.00023561079
0.00023367278
0.00023184016
0.00022932237
0.00022501882
0.00023139569
0.0002393083
0.00024744347
0.00025615147
0.00026512554
0.00027444358
0.00028230828
0.00028933398
0.00029661504
0.00030384477
0.00043595554
0.00043754232
0.00043964437
0.00044273312
0.00044680278
0.00042398372
0.00037770286
0.00033068548
0.00029999426
0.00026657808
0.0002525335
0.00024788388
0.00024219888
0.00024036163
0.0002384684
0.00023647913
0.0002337797
0.00022948744
0.00023481567
0.00024261719
0.00025068652
0.00025930854
0.00026815512
0.00027740121
0.00028554476
0.00029248458
0.00029965762
0.0003067858
0.00043809453
0.00043963987
0.00044171106
0.000444735
0.0004487462
0.00042763422
0.00038276247
0.00033723481
0.00030624162
0.00027290223
0.00025810718
0.00025323135
0.00024732212
0.00024520333
0.00024329489
0.00024112444
0.00023826902
0.00023411117
0.00023828282
0.00024597624
0.00025403405
0.00026252269
0.00027123889
0.00028041763
0.00028884394
0.0002957002
0.00030277563
0.00030983286
0.00044024868
0.00044175306
0.00044379481
0.0004467567
0.00045071091
0.00043115908
0.00038767544
0.00034379584
0.00031246638
0.00027926056
0.00026368999
0.00025857658
0.00025248134
0.00025022122
0.00024816564
0.00024577996
0.00024278023
0.00023876751
0.00024179999
0.00024938677
0.00025743744
0.00026579438
0.00027438897
0.00028349318
0.00029220387
0.00029898205
0.0003059681
0.00031296294
0.000442419
0.00044388303
0.0004458969
0.00044879982
0.00045269894
0.00043454042
0.00039266201
0.0003501215
0.00031879459
0.00028551213
0.00026928066
0.00026394869
0.00025776124
0.00025528381
0.00025305116
0.00025047429
0.00024747605
0.00024345351
0.0002453604
0.00025286785
0.00026088931
0.00026912548
0.00027767016
0.00028663067
0.00029561358
0.00030232081
0.00030922368
0.00031615866
0.00044460621
0.0004460305
0.00044801775
0.00045086397
0.00045470868
0.00043796346
0.00039752714
0.00035658036
0.00032509138
0.00029166864
0.00027487208
0.00026934956
0.00026318767
0.00026038787
0.00025794796
0.00025519965
0.00025226328
0.00024816697
0.00024897186
0.00025649833
0.00026439374
0.00027250509
0.00028100542
0.00028982621
0.00029894802
0.00030571044
0.00031252807
0.00031940822
0.00044681046
0.00044819536
0.00045015664
0.00045294675
0.00045673477
0.00044135785
0.0004024633
0.00036301627
0.00033134292
0.00029769673
0.00028050339
0.00027490519
0.00026865796
0.00026550347
0.00026287414
0.00026002996
0.00025709172
0.00025290304
0.00025263005
0.00026018051
0.00026794914
0.00027593361
0.00028438965
0.00029309101
0.00030211738
0.00030917298
0.00031587033
0.0003227036
0.00044903166
0.00045037704
0.00045230928
0.00045504727
0.00045877895
0.00044475028
0.0004073854
0.0003694174
0.00033754716
0.00030369861
0.0002862106
0.0002805444
0.00027415224
0.00027063282
0.0002678408
0.00026500174
0.00026195917
0.0002576566
0.00025638064
0.00026390873
0.00027155456
0.00027945334
0.00028783095
0.00029641569
0.00030535307
0.00031271284
0.00031929199
0.00032606363
0.00045125873
0.00045256552
0.00045447132
0.00045716583
0.0004608418
0.00044809613
0.00041225845
0.00037576042
0.00034366543
0.00030972767
0.00029203542
0.00028623322
0.00027964751
0.00027579815
0.00027289938
0.00027001794
0.00026685056
0.00026246854
0.00026026783
0.00026768723
0.00027521199
0.0002830776
0.00029132852
0.00029979171
0.00030864299
0.00031632456
0.00032281263
0.00032949362
0.00045350185
0.00045477176
0.00045665135
0.00045930389
0.00046292566
0.0004513747
0.0004170632
0.00038200568
0.00034985246
0.00031590685