/*--------------------------------*- C++ -*----------------------------------*\
  =========                 |
  \\      /  F ield         | OpenFOAM: The Open Source CFD Toolbox
   \\    /   O peration     | Website:  https://openfoam.org
    \\  /    A nd           | Version:  7
     \\/     M anipulation  |
\*---------------------------------------------------------------------------*/
FoamFile
{
    version     2.0;
    format      ascii;
    class       volScalarField;
    location    "50000";
    object      as;
}
// * * * * * * * * * * * * * * * * * * * * * * * * * * * * * * * * * * * * * //

dimensions      [0 -1 0 0 0 0 0];

internalField   nonuniform List<scalar> 
113400
(
1.1808971
1.1808971
1.1808971
1.1808971
1.2034789
1.2112657
1.2239194
1.2465943
1.2922367
1.414965
1.536841
1.5604456
1.5455315
1.2576286
1.6035815
1.6223358
1.6473305
1.6722241
1.6954423
1.7132198
1.7269285
1.7332604
1.721168
1.6828527
1.6351286
1.5926023
1.522217
1.0549829
1.1865558
1.1916717
1.2005653
1.2118151
1.23272
1.2692068
1.3395682
1.4786471
1.5275036
1.5449311
1.5417826
1.4845948
1.314715
1.5924154
1.6409839
1.6615165
1.6800685
1.7032266
1.720062
1.7268175
1.723782
1.6999215
1.6498973
1.5807787
1.4990132
1.4068058
1.3057939
1.2001949
1.1882672
1.1990469
1.2196937
1.2522092
1.3091379
1.4072049
1.5456052
1.5216992
1.5307864
1.5179942
1.4915653
1.2801465
1.4696928
1.6543764
1.665667
1.6702259
1.7021873
1.7119452
1.7229768
1.7239159
1.7093756
1.6752601
1.6167904
1.538128
1.4483335
1.3514086
1.2520097
1.1557173
1.1921195
1.2127379
1.2559148
1.325434
1.4366334
1.5079847
1.5377496
1.5237048
1.5112364
1.494678
1.358637
1.3677778
1.6272104
1.6553165
1.6714538
1.6870529
1.7096664
1.7221643
1.7270171
1.7196865
1.6942255
1.648603
1.5876022
1.5117336
1.4244162
1.3326007
1.2412074
1.153732
1.1980519
1.2329541
1.3032621
1.4080812
1.4662897
1.5039662
1.5126519
1.4924492
1.4850818
1.4241547
1.2887762
1.4667851
1.660878
1.670129
1.6781311
1.7039591
1.7154136
1.7233823
1.7220534
1.7090375
1.680999
1.6329561
1.5704365
1.4981781
1.4186865
1.3350558
1.2507777
1.1689191
1.2035143
1.2506852
1.3315536
1.3994021
1.4425636
1.4698417
1.4729921
1.4734785
1.4582565
1.2965258
1.3457118
1.5644228
1.6604052
1.6737729
1.6841174
1.7103993
1.7222651
1.7247499
1.7173794
1.6997778
1.668352
1.6208293
1.5589924
1.4879129
1.4105794
1.3303765
1.2495131
1.1704561
1.2018607
1.2452421
1.3116891
1.3637014
1.4099747
1.4352784
1.4517651
1.430636
1.3740227
1.2758596
1.4005699
1.6629779
1.6719902
1.6794748
1.6958116
1.7155554
1.7245692
1.7258052
1.713198
1.6910924
1.6568404
1.6115145
1.5518441
1.4830753
1.4085928
1.3308569
1.2522809
1.1750071
1.1969354
1.2307767
1.257581
1.3365866
1.3823675
1.4047481
1.3993971
1.4019283
1.272593
1.3199901
1.4677452
1.6774004
1.6770814
1.6862018
1.7088197
1.7203832
1.7248569
1.7226469
1.7088565
1.6831953
1.6469786
1.5993817
1.5445121
1.4788146
1.4066775
1.3314113
1.2551459
1.1797729
1.185659
1.1987484
1.24748
1.2980908
1.3441258
1.3627278
1.3716747
1.3111714
1.2562905
1.3734374
1.5687139
1.6806858
1.6814303
1.6935277
1.7128928
1.7250057
1.725193
1.7185267
1.7018496
1.6747768
1.6367636
1.5890576
1.5333157
1.4723209
1.404521
1.3313349
1.256941
1.1832309
1.1830821
1.1891211
1.2082801
1.2732421
1.3102994
1.3240838
1.3237074
1.2537172
1.2803158
1.4042967
1.6662219
1.6805557
1.68713
1.7005363
1.7168719
1.7284201
1.7254559
1.7148708
1.6955847
1.6664752
1.6273017
1.5804463
1.5247823
1.4638076
1.3991672
1.3315675
1.2588218
1.1864348
1.179096
1.1793109
1.2089721
1.2461048
1.2710725
1.2949892
1.263028
1.2247089
1.3260465
1.4576876
1.6980766
1.6847319
1.6938524
1.7102579
1.7206264
1.7271019
1.7255893
1.7114299
1.6897344
1.6590714
1.6186878
1.5714308
1.5178282
1.4570392
1.3929076
1.3264957
1.2590545
1.1894293
1.1781181
1.1799594
1.1914078
1.2192017
1.2549625
1.2388905
1.2267032
1.2432069
1.3711179
1.5543342
1.6957535
1.6895463
1.701408
1.7134029
1.724296
1.7258366
1.7241455
1.7080137
1.6840807
1.6520713
1.6107453
1.5632127
1.5094226
1.4511014
1.3874617
1.3217333
1.2549475
1.1882116
1.1768262
1.1765186
1.1839904
1.211514
1.2058671
1.2268489
1.186286
1.2799417
1.4030343
1.6449877
1.6914602
1.6948821
1.7092951
1.7164819
1.7276914
1.7246052
1.7201103
1.7047837
1.6788814
1.6455254
1.6037553
1.5559141
1.5021511
1.4444327
1.3830719
1.3179617
1.2518597
1.1857655
1.1756038
1.1753991
1.181766
1.1824991
1.2021259
1.1979495
1.2062567
1.3105417
1.4459691
1.7086075
1.6918919
1.7007436
1.7168317
1.7193941
1.7298737
1.723369
1.7160806
1.701487
1.6741079
1.6393478
1.5975846
1.5495806
1.4959757
1.4382705
1.3780986
1.3150425
1.2495653
1.1840855
1.1741696
1.1738681
1.1735202
1.1796392
1.1892708
1.1667333
1.2321245
1.3467366
1.502494
1.705272
1.6964264
1.7072634
1.7169901
1.7220276
1.7280456
1.7221278
1.7121497
1.6968668
1.6697605
1.6338636
1.5922105
1.5441703
1.4907964
1.4332579
1.3733242
1.3117193
1.2481241
1.1831886
1.1725197
1.1720613
1.1713545
1.17479
1.1718599
1.1611232
1.2601848
1.3818142
1.5617059
1.7027968
1.7014638
1.714232
1.7178314
1.7245523
1.7261841
1.7207427
1.7080824
1.6923489
1.6655379
1.6286689
1.5866826
1.5392301
1.4861606
1.4288921
1.3693253
1.3081083
1.2459268
1.1827941
1.1706236
1.1700404
1.1687978
1.1681098
1.161935
1.1826233
1.2871217
1.4226472
1.6205874
1.702086
1.7068713
1.7209709
1.7191215
1.7269734
1.724315
1.7192421
1.7039202
1.6878862
1.6613803
1.6236255
1.5813551
1.5345456
1.4818439
1.42492
1.3657903
1.3050572
1.2433243
1.1813644
1.1685312
1.1677374
1.1659166
1.162318
1.157749
1.1972229
1.3129812
1.4522257
1.6763555
1.7033188
1.7124216
1.7205428
1.7206687
1.7292439
1.7225449
1.7151084
1.6998558
1.6837033
1.6568749
1.6189641
1.5765127
1.5299431
1.4780536
1.4215215
1.3628763
1.3026585
1.2414036
1.1800386
1.1662791
1.1651974
1.1629704
1.1590049
1.1536838
1.2086228
1.3310702
1.4729947
1.7080891
1.706508
1.7181427
1.7205026
1.7222645
1.7274039
1.7209295
1.7111848
1.6960862
1.6785165
1.6524442
1.6149365
1.5724578
1.526055
1.4751164
1.4190323
1.3609127
1.301227
1.240446
1.1796796
1.1638533
1.1624067
1.1600077
1.1556246
1.1497292
1.2207405
1.3450156
1.4964152
1.7074767
1.7110514
1.7230332
1.7206381
1.7238225
1.7255642
1.719345
1.7074124
1.6924634
1.6731325
1.6484619
1.6113364
1.5689282
1.5227862
1.4724301
1.4172076
1.3596533
1.3005279
1.2402452
1.1800856
1.1612859
1.1595204
1.1569528
1.1521891
1.1458517
1.2312975
1.3593665
1.5273041
1.7077218
1.7158171
1.7218741
1.720854
1.7253252
1.7237133
1.7177275
1.7036157
1.6888227
1.6678079
1.6446278
1.6078889
1.5655963
1.51977
1.4698149
1.4156846
1.3587315
1.3001853
1.2404865
1.1809128
1.1586136
1.156536
1.1538051
1.1486862
1.1419989
1.2397975
1.3708494
1.558013
1.7089479
1.7207036
1.7209135
1.7210934
1.7267407
1.7218734
1.7160904
1.6999978
1.6851674
1.6625214
1.640875
1.6045283
1.562391
1.5169193
1.467413
1.4140027
1.3580478
1.3000954
1.2410109
1.1820397
1.1558447
1.1534659
1.1505689
1.1451157
1.138085
1.2481866
1.3819748
1.5863703
1.7110644
1.7225236
1.7200004
1.7213421
1.7257401
1.7200336
1.7144417
1.6964672
1.680016
1.6572074
1.6354823
1.6011656
1.5591723
1.5140901
1.4650791
1.412237
1.357456
1.3001137
1.2416737
1.1833189
1.1529822
1.1503147
1.1472405
1.1413429
1.1340757
1.2569566
1.3938246
1.6134359
1.7139026
1.7201427
1.719159
1.7215836
1.7231943
1.7181677
1.7111716
1.6929266
1.6747239
1.6519005
1.6288253
1.5978269
1.5559406
1.5112663
1.4627658
1.410522
1.3564659
1.3001764
1.2423913
1.1846622
1.1500227
1.1470395
1.1436217
1.1374507
1.1369461
1.2653174
1.4070221
1.6401318
1.7166876
1.7178838
1.7183461
1.7217795
1.7204962
1.7162578
1.7072354
1.6893652
1.6693734
1.6465927
1.6223019
1.5945222
1.5527297
1.5084598
1.4604761
1.4088398
1.3554304
1.3002256
1.2431337
1.1860328
1.1467183
1.1434108
1.1398655
1.1335083
1.1405649
1.2727912
1.4220659
1.6648718
1.7119898
1.7157272
1.7175734
1.7219483
1.7176748
1.714321
1.7032752
1.685778
1.6639407
1.6412356
1.6157959
1.5912057
1.5495138
1.5056689
1.4582215
1.4072042
1.3544572
1.2998743
1.2439216
1.1874397
1.143275
1.1397
1.1360448
1.1295283
1.1423279
1.2792033
1.4364585
1.6868952
1.7076525
1.7136265
1.7167941
1.7187517
1.7147193
1.7123882
1.6993206
1.6821904
1.6584464
1.635805
1.6094075
1.5841111
1.5463002
1.5028267
1.4559465
1.405565
1.3534848
1.2995364
1.2445519
1.1888496
1.1397539
1.1359171
1.1321652
1.1255006
1.1432718
1.2858459
1.4486641
1.6919172
1.7034253
1.7115567
1.7159709
1.7145774
1.7115835
1.7104609
1.6954056
1.6786246
1.6531739
1.6304111
1.6031668
1.5770682
1.5431214
1.4999785
1.4536475
1.4038849
1.3524617
1.299158
1.2448701
1.1901928
1.1361637
1.132071
1.1282334
1.1214353
1.143472
1.2910451
1.4569641
1.6865153
1.6991537
1.7094601
1.7150968
1.7103142
1.7082645
1.7077291
1.6915113
1.6750552
1.6484816
1.6249969
1.5969983
1.5701365
1.5399156
1.4970932
1.4513312
1.4021692
1.3514004
1.2987458
1.2451594
1.191222
1.1325101
1.1281678
1.1242519
1.1173306
1.1438488
1.2953383
1.4585354
1.6771017
1.6950601
1.7073205
1.7120563
1.7059536
1.7047515
1.7034805
1.6875874
1.6714547
1.643718
1.6192399
1.5907407
1.5632827
1.5338386
1.4941071
1.4488793
1.4003214
1.3502154
1.298223
1.2453453
1.1920336
1.1287946
1.1242089
1.1202191
1.1131793
1.1433584
1.2952634
1.4582003
1.6678506
1.6910932
1.7051067
1.7066466
1.7014487
1.7010569
1.6992114
1.683622
1.666153
1.6389059
1.6128233
1.5844742
1.5565809
1.526802
1.4910844
1.4463408
1.3983624
1.3489058
1.2975728
1.2453944
1.1927114
1.1250213
1.1201975
1.1161396
1.1089886
1.1415596
1.2924204
1.4565506
1.6587094
1.6871526
1.7028345
1.7011176
1.6967786
1.6971466
1.6949016
1.6796047
1.6607753
1.6340231
1.606332
1.578186
1.5499354
1.5199086
1.4880147
1.4437415
1.3963274
1.3475092
1.2968314
1.2453429
1.1932837
1.121194
1.1161368
1.1120167
1.1047612
1.1381785
1.288764
1.4542722
1.6497535
1.6830714
1.6968775
1.6954792
1.6919932
1.6930288
1.6904759
1.6755212
1.6553121
1.6290565
1.5999165
1.5718423
1.5432425
1.5131063
1.4826707
1.4410559
1.3941597
1.3459885
1.2959726
1.2451725
1.1937367
1.1173171
1.1120301
1.1078372
1.1003838
1.1341128
1.2845983
1.4513526
1.6409158
1.6787477
1.6894237
1.6897103
1.6869915
1.6860112
1.6838483
1.6714053
1.6497457
1.6239694
1.5944581
1.5653884
1.5365274
1.5064278
1.4755491
1.4383062
1.3918837
1.3443256
1.2949688
1.2448504
1.1940364
1.113312
1.1077627
1.1034519
1.0959775
1.1295932
1.2801015
1.4483032
1.6320662
1.6714404
1.681794
1.6836964
1.6818114
1.6786589
1.6770324
1.6672551
1.6440781
1.6187593
1.5888562
1.5587848
1.5297304
1.4997486
1.4685237
1.4354537
1.3894753
1.3425147
1.2938099
1.2443648
1.1941698
1.1089435
1.1033268
1.0990311
1.0915429
1.1246834
1.27534
1.4452415
1.623134
1.6605712
1.6739928
1.6771814
1.6765103
1.6709989
1.6699917
1.662747
1.6383075
1.6134253
1.5831008
1.552026
1.52278
1.4929304
1.4614708
1.4307985
1.3868817
1.3404882
1.292447
1.2436785
1.1941078
1.1045308
1.0988505
1.0945754
1.0870793
1.1194301
1.2707504
1.4410498
1.6105374
1.64916
1.666085
1.6704991
1.6695615
1.6631645
1.6627155
1.6564414
1.6324363
1.6079928
1.5772145
1.5451424
1.5156989
1.4859736
1.4544343
1.4235337
1.3840973
1.338203
1.2908262
1.242733
1.1937923
1.1000756
1.0943351
1.090085
1.0825868
1.1138265
1.2662014
1.4357246
1.5950708
1.6372386
1.6580832
1.6635909
1.6605779
1.6550727
1.655207
1.6500547
1.6264831
1.602482
1.5712193
1.5390096
1.5085436
1.4790136
1.4474162
1.4163063
1.3811353
1.3357072
1.2889718
1.2415381
1.193223
1.0955797
1.0897819
1.0855605
1.0780659
1.1082216
1.2605347
1.4235617
1.5791489
1.6249875
1.6499668
1.6565025
1.6513669
1.6467349
1.6474772
1.6435934
1.6204285
1.5958362
1.5651021
1.5334347
1.5013055
1.4720323
1.4403634
1.4090991
1.3770357
1.333035
1.2868975
1.2401224
1.1924338
1.0910471
1.085194
1.0810073
1.0735231
1.1018027
1.252176
1.4095868
1.5629639
1.6125478
1.6417122
1.6470588
1.6419716
1.6382377
1.6395785
1.6370417
1.6142659
1.5890593
1.5588359
1.527305
1.4939177
1.4647531
1.4332114
1.4020069
1.3699089
1.3302103
1.2845918
1.2384736
1.1914347
1.0864808
1.0805738
1.0764268
1.0689583
1.0944608
1.24154
1.3950796
1.5466353
1.5999478
1.6332893
1.6357204
1.6323704
1.6294939
1.6295323
1.6298271
1.6080167
1.5821829
1.5524607
1.5209201
1.4864299
1.4573451
1.4260638
1.395015
1.3629788
1.3272883
1.2821515
1.2366584
1.1902503
1.081885
1.075925
1.0718233
1.0643639
1.0861021
1.2303616
1.3804167
1.5301982
1.5870612
1.6239682
1.6241226
1.6225164
1.6203828
1.6188854
1.6191499
1.6016725
1.5751572
1.5459483
1.5143972
1.4788437
1.449871
1.4188681
1.3880018
1.3560479
1.324201
1.2795376
1.2346694
1.1888827
1.0772631
1.0712511
1.0671536
1.0596742
1.0774814
1.2190755
1.3658745
1.5138233
1.5736686
1.6113804
1.6122832
1.612523
1.6111235
1.6081524
1.6085333
1.5952453
1.5679955
1.5392789
1.507646
1.4726351
1.4421803
1.4115409
1.3808132
1.3491204
1.3177381
1.2767155
1.2324068
1.1872518
1.0724463
1.0664473
1.062377
1.0549655
1.0688106
1.2078137
1.3515879
1.4973464
1.5591317
1.5985899
1.600274
1.6023773
1.6010385
1.5973579
1.5978666
1.588019
1.5606949
1.5324509
1.5006821
1.466247
1.4342524
1.4040333
1.3734923
1.342152
1.3108901
1.2736969
1.2299084
1.1853612
1.0674808
1.0616281
1.0575757
1.0502312
1.0603076
1.1968208
1.3380622
1.4806941
1.5414915
1.5856399
1.5882082
1.5920543
1.5893027
1.5862651
1.5870593
1.5801585
1.5532635
1.525486
1.4935463
1.4596717
1.426158
1.396378
1.3660547
1.3350922
1.3039891
1.2704575
1.2271797
1.1832245
1.0624853
1.0567772
1.0527462
1.0454675
1.0519555
1.1861723
1.324252
1.46252
1.5233164
1.5725518
1.5760036
1.5815585
1.5773471
1.5749375
1.5760351
1.5721838
1.5457138
1.5184114
1.4862692
1.4529398
1.4179412
1.3886003
1.3584977
1.3278999
1.2970061
1.2661926
1.2242144
1.1808423
1.0574595
1.0518945
1.0478886
1.0406751
1.0437114
1.1757237
1.3098731
1.4429291
1.5048082
1.5593822
1.5636404
1.569947
1.5652292
1.563494
1.5648845
1.5640989
1.5380219
1.5105876
1.4788402
1.4460516
1.4100717
1.3806936
1.3508202
1.320546
1.2900078
1.2593594
1.2210189
1.1781968
1.0524015
1.0469781
1.0429997
1.03585
1.0357672
1.1648327
1.2931662
1.4229183
1.4862691
1.5461324
1.5510901
1.5570618
1.5529346
1.551897
1.5527624
1.5558954
1.5302033
1.5025148
1.4712892
1.4390211
1.4032773
1.372688
1.3431321
1.3131852
1.2830394
1.2525999
1.2176557
1.1753573
1.0473128
1.0420293
1.0380819
1.0309959
1.0275049
1.1526044
1.2759412
1.4027258
1.4676478
1.5327748
1.5382097
1.5439818
1.5404199
1.5399474
1.5399086
1.543297
1.5222639
1.4942593
1.463556
1.4315678
1.3963104
1.3645752
1.3353779
1.3057786
1.2760455
1.2458255
1.2141185
1.1723398
1.0421952
1.0370506
1.0331082
1.0261171
1.0190825
1.1400186
1.2588161
1.3824766
1.4491394
1.5192289
1.5233567
1.5307112
1.527811
1.5279002
1.5270446
1.530452
1.5142156
1.4858379
1.4556242
1.42379
1.3891262
1.3562653
1.3274807
1.2982465
1.2689265
1.2389498
1.2099267
1.1690983
1.0370492
1.0320418
1.0280913
1.0211771
1.0130141
1.1274685
1.2420596
1.3622113
1.4305454
1.5053348
1.5083241
1.5163419
1.5150932
1.5154435
1.5141536
1.5176688
1.5059543
1.4772581
1.447506
1.4157994
1.3817014
1.3476368
1.3193635
1.2905287
1.2615835
1.2320494
1.2032421
1.1656423
1.0318
1.026875
1.0229089
1.0162017
1.0081686
1.1151602
1.2259007
1.3422782
1.4118259
1.4896925
1.4931853
1.5019593
1.5022634
1.5019351
1.5011823
1.5048373
1.4968071
1.4685265
1.4392359
1.4076259
1.3740693
1.3389571
1.3110617
1.2826378
1.2540806
1.2250472
1.1964949
1.1619693
1.0264224
1.0216072
1.0176986
1.0111994
1.0032967
1.1031138
1.2102109
1.3222992
1.392561
1.4738857
1.4779541
1.4875314
1.489337
1.4883085
1.4880746
1.4918916
1.4875125
1.4596456
1.4308316
1.3992928
1.3662256
1.3315593
1.302575
1.2746479
1.2464608
1.2179417
1.1896426
1.1580855
1.0210198
1.0163168
1.0124604
1.0061663
0.99839287
1.0913855
1.1950259
1.3022611
1.3727065
1.4579616
1.462712
1.4730228
1.4756984
1.4745731
1.4749536
1.4788872
1.4780878
1.4506079
1.4221963
1.3907713
1.3581691
1.3239268
1.2938711
1.2664785
1.2386683
1.2106798
1.1826286
1.1539738
1.0155906
1.0110016
1.0071916
1.0010961
0.9934498
1.0801706
1.1796374
1.2825086
1.3525606
1.4419879
1.4474348
1.458392
1.461372
1.4607229
1.4617619
1.4653797
1.4685427
1.4414229
1.4130432
1.3820828
1.3499506
1.3161219
1.2850049
1.2581501
1.2307037
1.203237
1.1755009
1.1483167
1.0101342
1.0056602
1.0018914
0.99598763
0.98846849
1.0688705
1.1641169
1.2623044
1.3324595
1.4248798
1.43207
1.4434283
1.4469116
1.4467628
1.4483727
1.451155
1.4585351
1.4320993
1.4037449
1.3732575
1.3416041
1.3081915
1.2760398
1.2497283
1.2226374
1.1956951
1.1683408
1.1415677
1.0046519
1.0002941
0.99656151
0.99084427
0.98345689
1.0575171
1.1485343
1.2419153
1.31278
1.4053361
1.4165781
1.4274234
1.432246
1.4326686
1.4347462
1.4369508
1.4442254
1.4226378
1.3942559
1.3642384
1.3330044
1.3000952
1.2669716
1.2412104
1.2144708
1.1880701
1.1611022
1.1347688
0.99914522
0.9949052
0.99120435
0.98567076
0.97848512
1.0462647
1.1330523
1.22158
1.2934896
1.3862051
1.4008466
1.4113107
1.4174875
1.4184806
1.420782
1.4228406
1.4302231
1.4130407
1.3846036
1.3550167
1.324162
1.2917792
1.2579492
1.2325493
1.2061508
1.1802952
1.1536988
1.1278162
0.99361382
0.9894932
0.98585497
0.98058159
0.97354386
1.035237
1.1179004
1.2013997
1.2746726
1.3672261
1.3844999
1.3951566
1.4027461
1.4042264
1.4063717
1.4087547
1.4162659
1.4028557
1.3747999
1.3456461
1.3151542
1.2832288
1.2500191
1.2236944
1.1977331
1.1724032
1.1461464
1.1207099
0.98809173
0.98421989
0.98067745
0.97550504
0.9685702
1.0245452
1.1030902
1.1817104
1.255923
1.347885
1.3680449
1.3790071
1.3879708
1.3899421
1.3919283
1.3946002
1.4022448
1.3925045
1.3648288
1.3361039
1.3059635
1.2744673
1.2418876
1.2146176
1.1892398
1.1643527
1.1384386
1.1135245
0.98256651
0.97896485
0.97547538
0.97039806
0.96356109
1.0142033
1.0886225
1.1624319
1.2373431
1.3283752
1.3515386
1.3629404
1.3730895
1.3751542
1.3774217
1.3804723
1.3882536
1.3820022
1.3546927
1.3263807
1.2965868
1.2655013
1.2335474
1.2053276
1.1806416
1.1560902
1.1307425
1.1062198
0.97701191
0.97367586
0.97024528
0.96525578
0.95851059
1.0042557
1.0745998
1.1431958
1.2196722
1.3089085
1.3350477
1.3469037
1.3581262
1.3602015
1.3628764
1.3662594
1.37386
1.3713533
1.3443879
1.3164069
1.2870288
1.2563627
1.2250226
1.1958635
1.171871
1.1476384
1.1229254
1.0987443
0.97142482
0.96834986
0.9649833
0.96007404
0.95341484
0.99468592
1.0605384
1.1258008
1.2018393
1.28987
1.3185824
1.3308223
1.3429084
1.3451692
1.3483205
1.3519321
1.3592095
1.3605426
1.3339187
1.3062653
1.2772968
1.2470532
1.2163292
1.1862506
1.1629562
1.1390274
1.1149579
1.091106
0.96580295
0.96298501
0.95968698
0.95485193
0.94827414
0.98521188
1.0473202
1.10888
1.1840965
1.2712163
1.3021256
1.3146852
1.3274781
1.3300483
1.3337523
1.3375747
1.3445461
1.3495896
1.3232923
1.2959621
1.2673779
1.2376741
1.2074554
1.1765064
1.1539066
1.1302581
1.1068346
1.0832915
0.96014463
0.95758011
0.9543548
0.94958966
0.94309259
0.97614659
1.0346791
1.0920032
1.166586
1.2530287
1.2855918
1.2985323
1.3119672
1.3149667
1.3190852
1.3230286
1.3298325
1.3385044
1.3124969
1.2855129
1.2572961
1.2281998
1.1984004
1.167139
1.1447278
1.1213538
1.0985646
1.0752909
0.95444927
0.95213504
0.94898653
0.94428993
0.93793127
0.96740585
1.0220584
1.0752559
1.1492773
1.2352046
1.2689869
1.2823341
1.2963502
1.299831
1.3042908
1.3084025
1.3150159
1.3265201
1.3015023
1.2749071
1.2470754
1.2185913
1.1891666
1.1585904
1.1354031
1.1123694
1.0902093
1.067181
0.9487201
0.94663741
0.94354068
0.93896448
0.93275029
0.95877899
1.0095514
1.0586502
1.132319
1.2173024
1.2527054
1.2660164
1.2805952
1.2845851
1.2893818
1.2936129
1.300291
1.311718
1.290359
1.2641147
1.2366782
1.2088147
1.1797484
1.1499886
1.1259041
1.1032869
1.081756
1.0589737
0.9429991
0.94105483
0.93802128
0.93359613
0.92752651
0.95028548
0.99713143
1.0421284
1.1152739
1.1996018
1.2362603
1.2496552
1.264473
1.2692366
1.2744156
1.2788125
1.285664
1.2970469
1.2790962
1.2531691
1.2262528
1.1988685
1.1701636
1.1412198
1.1162111
1.0944001
1.0731495
1.0506566
0.93724041
0.9354336
0.93246123
0.92818289
0.92225722
0.9419452
0.98482153
1.0256478
1.0985815
1.1822116
1.2197379
1.2333178
1.2483331
1.2539271
1.259399
1.2640291
1.2709627
1.2822437
1.2676884
1.2420678
1.2157765
1.1887574
1.1604199
1.1322933
1.1063629
1.0853691
1.0643676
1.0425397
0.93144249
0.92977182
0.92685859
0.92272221
0.9169391
0.93377004
0.97263356
1.0091771
1.0834144
1.1647924
1.2032125
1.2170081
1.2321073
1.2387321
1.2442891
1.2492464
1.2562168
1.2674029
1.2561258
1.2308065
1.2051413
1.1784799
1.1505664
1.1232081
1.0963656
1.076192
1.0554134
1.0343119
0.92560303
0.92406684
0.92121076
0.91721116
0.91156876
0.92575727
0.96031779
0.99577707
1.0680268
1.1476824
1.1866813
1.2006361
1.2160702
1.2234408
1.2291708
1.2343757
1.2414909
1.2525313
1.2444302
1.2194703
1.1943694
1.1680301
1.1409468
1.1139573
1.0862509
1.0668952
1.0463184
1.0259526
0.91971995
0.91831653
0.91551591
0.91164909
0.90614684
0.91779332
0.95000018
0.98221505
1.0527498
1.1308316
1.1701587
1.184193
1.2003045
1.2080615
1.2140496
1.2194385
1.2267234
1.2376323
1.2325757
1.2082271
1.1834487
1.1574414
1.131188
1.1045524
1.0764332
1.0574958
1.0371213
1.0174929
0.91379239
0.9125204
0.90977403
0.9060381
0.90071313
0.91050949
0.93960619
0.96864571
1.0376034
1.1142965
1.1535287
1.1684421
1.1844575
1.1926799
1.1988685
1.2046337
1.2118843
1.2227172
1.2205763
1.1968394
1.1723835
1.146712
1.1213039
1.0949628
1.0678186
1.0479364
1.0278514
1.0089542
0.90782027
0.90668307
0.90403574
0.90046814
0.89529598
0.90324196
0.92921409
0.95506936
1.0225779
1.0978178
1.1372079
1.152811
1.1685801
1.1772843
1.1835928
1.1900126
1.1969783
1.2077977
1.2085773
1.1853241
1.1611763
1.1360758
1.1112719
1.0852156
1.0590452
1.0382073
1.0186051
1.0002914
0.90196327
0.90096002
0.89836113
0.89488034
0.88983131
0.89602619
0.9188466
0.94149133
1.0077452
1.0812649
1.1217628
1.1370756
1.1527275
1.1618058
1.1685027
1.1753125
1.1820473
1.1927515
1.1966621
1.173668
1.1498215
1.1255993
1.1010957
1.0753355
1.0501457
1.0283255
1.0096136
0.99149449
0.89608073
0.89519129
0.89264109
0.88924443
0.88431623
0.88887123
0.90850587
0.92792212
0.9927429
1.0661928
1.1061525
1.1213223
1.136879
1.1461951
1.1537684
1.1604981
1.1670717
1.1776272
1.184607
1.1618675
1.1383248
1.1149826
1.0907787
1.0653291
1.0411207
1.0183214
1.000515
0.98256458
0.89015258
0.88937486
0.88687356
0.88355804
0.8787482
0.88176848
0.89817555
0.91419865
0.97957774
1.0508727
1.0904778
1.1055318
1.1209184
1.1310047
1.1389178
1.1456626
1.1519445
1.1627803
1.1724221
1.1499451
1.1269089
1.1042516
1.0803173
1.0558537
1.0319646
1.0082352
0.99133617
0.97352706
0.88417681
0.88350849
0.8810562
0.87781878
0.87312485
0.87470526
0.88775376
0.90291765
0.966575
1.0356265
1.07475
1.089706
1.104838
1.1161766
1.1239365
1.1307565
1.1366748
1.1478411
1.160092
1.1378609
1.1157712
1.0933849
1.0697345
1.0462633
1.022695
0.99806597
0.98209419
0.96441068
0.87815164
0.8775905
0.87518737
0.87202574
0.8674462
0.86766129
0.87900876
0.89224096
0.95353651
1.0205001
1.0589974
1.0737316
1.0898089
1.1011908
1.108913
1.1156978
1.1216918
1.1328541
1.1457599
1.1256435
1.1044842
1.0823799
1.0590249
1.0365742
1.013275
0.98918842
0.97273291
0.95524575
0.87207643
0.87162082
0.86926718
0.86618064
0.86179209
0.86127922
0.87050481
0.88149255
0.94047363
1.0054261
1.0431177
1.0583312
1.0747852
1.0861168
1.09384
1.1005496
1.1068744
1.1179453
1.1304855
1.1137511
1.0930685
1.0712375
1.0486456
1.0267595
1.0037093
0.98070632
0.96323422
0.94599885
0.86597615
0.86564421
0.86339282
0.86046303
0.85620685
0.85488463
0.86197552
0.8707057
0.92743892
0.99041129
1.0273423
1.0438023
1.0596891
1.071037
1.0786808
1.0860128
1.0923298
1.1030855
1.1152273
1.1019989
1.0815255
1.0599555
1.0384365
1.0168098
0.99401666
0.97210933
0.95359498
0.93724409
0.86003006
0.85977102
0.85757466
0.85472389
0.85057269
0.84849383
0.85343632
0.85988735
0.91450083
0.97519552
1.013245
1.0291252
1.0445799
1.05591
1.0634243
1.0717086
1.0777894
1.0881542
1.1000973
1.090125
1.0698615
1.0485456
1.028108
1.0067307
0.98431047
0.96339368
0.94383271
0.92844171
0.8540362
0.85384854
0.8517074
0.84893456
0.84488747
0.84210959
0.84488731
0.84903695
0.9013584
0.96183363
0.99897735
1.0144136
1.0294701
1.0406436
1.0492155
1.0573006
1.0632648
1.0731176
1.0854048
1.0781356
1.0580779
1.0375998
1.0176736
0.99653039
0.97520539
0.95456582
0.93400258
0.91958114
0.84799368
0.84787545
0.84578963
0.84309329
0.83914917
0.83572799
0.83632097
0.83808898
0.890218
0.94832165
0.98463341
0.99964035
1.0142617
1.0256845
1.0350141
1.042812
1.048665
1.0581226
1.0706374
1.066024
1.0461584
1.0268153
1.0071182
0.98621568
0.96599783
0.94563722
0.92410479
0.91067195
0.84190126
0.84185035
0.83981992
0.83719868
0.83335647
0.82934134
0.8279135
0.82970846
0.87908059
0.93483794
0.97023369
0.98483524
0.9989268
1.0117326
1.0207076
1.0283184
1.0339478
1.0438213
1.0557794
1.0538049
1.0342247
1.0159278
0.99645965
0.97579931
0.95670989
0.93656754
0.91587027
0.90164875
0.83575781
0.83577237
0.83379744
0.83125056
0.82751025
0.82318062
0.82095447
0.82139333
0.86792206
0.92140334
0.95580018
0.96989617
0.98499575
0.99764657
1.0063721
1.0137636
1.0194476
1.0294581
1.0409339
1.0414522
1.0230282
1.0049368
0.98568918
0.96616228
0.94731592
0.92739212
0.90782632
0.89252783
0.82956321
0.82964197
0.82772679
0.82533592
0.82180701
0.81733941
0.81397464
0.81305539
0.85675687
0.90801064
0.9412473
0.955937
0.97124281
0.98350115
0.99201698
0.99909726
1.0058116
1.0149868
1.0260839
1.0289809
1.0117209
0.99383135
0.97479864
0.95645617
0.93781587
0.91811507
0.89969654
0.88331631
0.82350667
0.8236529
0.82184119
0.81952268
0.81609574
0.81148391
0.80698313
0.80469957
0.84561434
0.894561
0.92739613
0.94281816
0.95741147
0.96931532
0.97755962
0.98503059
0.9920884
1.0005006
1.0111142
1.0172598
1.000309
0.98263819
0.96399912
0.94666664
0.92822293
0.9091256
0.89148132
0.87403039
0.81748688
0.81766563
0.81590687
0.81366013
0.81033486
0.80561396
0.79998098
0.7963256
0.83444817
0.88161865
0.91488948
0.92958362
0.94354967
0.95507929
0.96299095
0.97160527
0.97827928
0.98597501
0.99606378
1.0055997
0.98879519
0.97132676
0.95392715
0.93678437
0.91854406
0.90059045
0.88318641
0.86471145
0.81141891
0.81162886
0.80992311
0.8077471
0.80452281
0.79972653
0.79296464
0.78792529
0.82390153
0.87004658
0.90226208
0.91630972
0.9296709
0.94070275
0.94980364
0.95806477
0.96445827
0.9713015
0.98175425
0.99377195
0.97718143
0.95991282
0.94376784
0.92681755
0.90878485
0.89199451
0.87479919
0.85646654
0.80530222
0.80554195
0.8038892
0.80178284
0.79865885
0.7938201
0.78593461
0.78052231
0.81453669
0.85834514
0.88956615
0.90297575
0.91566602
0.92707818
0.93661266
0.94443581
0.95055193
0.9564448
0.96774727
0.97901026
0.96546856
0.94917098
0.93350382
0.91675784
0.89936489
0.88332365
0.86631113
0.84909171
0.79913643
0.79940481
0.79780506
0.79576761
0.79274364
0.78795977
0.77980923
0.7740691
0.80508122
0.84664456
0.87681572
0.8895819
0.90193853
0.91430835
0.92336414
0.93082846
0.93657924
0.94280142
0.95376877
0.96443724
0.9536658
0.93863723
0.92314411
0.90658716
0.89041821
0.87455295
0.85773214
0.84164792
0.79292184
0.79321818
0.79167146
0.78975688
0.78694355
0.78244296
0.77395065
0.76760842
0.7956297
0.83497356
0.86402822
0.87612829
0.88973854
0.90144245
0.910108
0.9171836
0.92295191
0.92918402
0.93981221
0.94984865
0.94241679
0.92801756
0.9127063
0.89632961
0.88139426
0.86570271
0.84907491
0.83413924
0.78684634
0.78718099
0.78573982
0.78392166
0.78120257
0.77690203
0.76807964
0.7611417
0.78622504
0.82337371
0.85111773
0.86467732
0.87745012
0.88857234
0.89685053
0.90348087
0.91039271
0.91554178
0.92592489
0.9352619
0.93162021
0.91732029
0.90218017
0.8868552
0.87230174
0.85678184
0.84108284
0.82654663
0.78085154
0.78118788
0.77979405
0.77804055
0.77541509
0.77133041
0.76219181
0.75466647
0.77690118
0.81170275
0.8403235
0.85312945
0.86517073
0.87569659
0.88352812
0.89090301
0.89776977
0.90239567
0.91198633
0.92137202
0.920741
0.9065517
0.8915691
0.87752761
0.86313239
0.84778442
0.83323189
0.81886694
0.77481213
0.77514962
0.77380296
0.77211313
0.76958042
0.76572474
0.75628443
0.74818072
0.76776218
0.80191214
0.82949451
0.84156083
0.85288581
0.8627226
0.87068745
0.87871671
0.88510888
0.88943908
0.89798938
0.90796948
0.90978426
0.89570388
0.88141302
0.86813257
0.8539025
0.83872298
0.82532455
0.81112274
0.76872799
0.76906597
0.76776632
0.76613909
0.76369825
0.76008499
0.75036163
0.74219201
0.75994712
0.79205194
0.81863664
0.82997659
0.84059713
0.84976659
0.85898412
0.86648448
0.87246982
0.87642905
0.88500617
0.894547
0.89876438
0.88477552
0.87182279
0.85867787
0.8446018
0.83058604
0.81736361
0.80332339
0.76259897
0.76293703
0.76168417
0.76011698
0.75776885
0.75446887
0.74497677
0.73696863
0.75212609
0.78224292
0.80776278
0.81839421
0.82823201
0.8385572
0.84720787
0.85426323
0.85982087
0.8636344
0.87224972
0.88113463
0.88766241
0.87421696
0.86216549
0.84916334
0.83523642
0.82242709
0.80935026
0.79547619
0.75642541
0.75676349
0.75557101
0.75414772
0.75200573
0.74909566
0.73977855
0.73172901
0.74436535
0.77250296
0.79687883
0.8067382
0.81749901
0.82729108
0.83543516
0.84205571
0.84711708
0.85203575
0.85943112
0.86780339
0.87590926
0.86437866
0.85243877
0.83958679
0.82633212
0.81421999
0.80129182
0.78774821
0.75048183
0.75083465
0.74972933
0.74835528
0.7462973
0.74368068
0.73454822
0.72646994
0.73668315
0.76284304
0.78592257
0.79663362
0.80693869
0.81603147
0.82366188
0.82979147
0.83538911
0.84038444
0.84659132
0.8545858
0.86252597
0.85449308
0.84263844
0.82992872
0.817931
0.80595647
0.79317397
0.78071925
0.74457465
0.7449121
0.74384799
0.74252274
0.74054754
0.73809517
0.72928227
0.72118975
0.72909516
0.75317572
0.77662879
0.78681567
0.79638168
0.80479552
0.81187572
0.81796415
0.82417455
0.82876481
0.83385334
0.84144517
0.84991987
0.8445592
0.83278612
0.820495
0.80947502
0.79763911
0.78500356
0.77364283
0.73862819
0.73895046
0.73792729
0.73665025
0.73475636
0.73239847
0.72397764
0.71588732
0.72177602
0.74506598
0.7675453
0.77700286
0.7858507
0.79359792
0.80011415
0.80728223
0.8129726
0.81721896
0.8211409
0.82932011
0.83738477
0.83458784
0.82287488
0.81187898
0.8009721
0.78927579
0.77732184
0.76652508
0.73264268
0.73295001
0.73196748
0.73073803
0.72892392
0.72665938
0.71863883
0.71097387
0.71533807
0.73697213
0.758465
0.7672085
0.775356
0.78238035
0.78995608
0.79658599
0.8018296
0.80570844
0.80868322
0.81755899
0.82492799
0.8245643
0.81320258
0.80321941
0.79242863
0.78085875
0.77004121
0.7593647
0.72661856
0.72691137
0.72596914