/*--------------------------------*- C++ -*----------------------------------*\
  =========                 |
  \\      /  F ield         | OpenFOAM: The Open Source CFD Toolbox
   \\    /   O peration     | Website:  https://openfoam.org
    \\  /    A nd           | Version:  7
     \\/     M anipulation  |
\*---------------------------------------------------------------------------*/
FoamFile
{
    version     2.0;
    format      ascii;
    class       volScalarField;
    location    "50000";
    object      k;
}
// * * * * * * * * * * * * * * * * * * * * * * * * * * * * * * * * * * * * * //

dimensions      [0 2 -2 0 0 0 0];

internalField   nonuniform List<scalar> 
113400
(
33.340409
33.300391
32.974306
32.820766
33.888632
33.940866
34.203869
34.533374
34.570084
34.107808
32.119444
29.898894
30.616852
41.461169
73.403127
89.388169
102.44958
114.49736
127.04077
140.83445
156.406
174.23179
194.85571
220.26338
247.6287
271.75867
285.775
280.43006
33.845509
33.907666
33.890068
33.636781
33.117145
32.664008
32.034015
31.394203
30.557798
29.48643
28.556722
28.92092
36.86736
48.391964
59.590474
71.425723
82.027181
92.771619
103.91358
116.04783
129.30789
143.64958
158.67036
173.50616
187.40641
199.23549
207.91979
211.9969
32.928111
32.911753
32.747687
32.331774
31.576253
30.661072
29.611666
28.630604
27.8161
27.111509
27.291621
33.198209
39.24955
42.963822
49.630623
57.932588
66.377997
75.309806
84.835709
95.096383
106.08538
117.67871
129.53967
141.09757
151.83896
161.28316
169.05815
174.66933
30.874384
30.750714
30.425731
29.858471
29.094364
28.202614
27.328183
26.507609
25.940433
26.074248
29.331356
35.356896
36.518918
38.467765
43.244283
49.491571
56.788556
64.607222
73.153889
82.396468
92.198392
102.25324
112.24167
121.75523
130.36108
137.62139
143.1345
146.53798
28.629148
28.429081
28.008251
27.354831
26.709263
25.964134
25.366453
24.815483
24.721267
26.073617
31.216944
33.503477
33.255512
34.59689
38.187084
43.146978
49.382563
56.269282
63.751683
71.719298
79.986141
88.298461
96.346676
103.79097
110.2914
115.54175
119.29412
121.37861
26.434246
26.196741
25.771481
25.284571
24.713572
24.221147
23.793278
23.597546
24.218286
27.430399
31.243483
31.384457
30.642169
31.692827
34.487798
38.721849
44.160785
50.248875
56.876734
63.843379
70.942612
77.947258
84.56572
90.520368
95.560368
99.478193
102.12831
103.43152
24.506596
24.290832
23.911537
23.583986
23.171269
22.844884
22.659126
23.017448
24.543648
28.518644
29.49962
28.873323
28.379276
29.308256
31.614477
35.393103
40.171128
45.54643
51.368148
57.406596
63.460198
69.303843
74.721794
79.497914
83.449324
86.439414
88.382958
89.242513
22.873802
22.710188
22.452347
22.157885
21.910241
21.748561
21.918313
22.741242
25.351595
28.279486
27.937175
26.800555
26.5742
27.475349
29.566896
32.959269
37.193004
41.968741
47.093964
52.338806
57.508341
62.416627
66.894917
70.783971
73.952459
76.302057
77.778446
78.363713
21.516689
21.394618
21.212901
21.022028
20.89578
20.974083
21.487181
22.866732
25.897875
26.81555
26.371775
25.28603
25.155921
26.079125
28.058804
31.114431
34.890963
39.130046
43.631905
48.17928
52.596409
56.73471
60.452598
63.641045
66.205991
68.081106
69.224088
69.627401
20.398686
20.318659
20.188441
20.088282
20.1096
20.420946
21.239761
23.174886
25.344014
25.130911
24.556925
23.881439
23.924584
24.880509
26.790133
29.579816
32.952981
36.707811
40.65966
44.616089
48.417015
51.93436
55.0635
57.713685
59.822739
61.344757
62.254063
62.542965
19.472421
19.433608
19.376269
19.358224
19.540096
20.054923
21.200903
23.382725
24.282216
23.830067
23.005132
22.636179
22.889143
23.913281
25.759012
28.3274
31.351904
34.682287
38.15541
41.604504
44.889915
47.902099
50.55876
52.789577
54.544784
55.793904
56.523366
56.729241
18.698294
18.691495
18.693745
18.797024
19.10678
19.813317
21.157871
22.974575
23.070651
22.700194
21.921549
21.663823
22.050741
23.139299
24.909263
27.27622
30.008795
32.972448
36.034717
39.051504
41.905258
44.504201
46.776931
48.672355
50.15072
51.187786
51.774024
51.912263
18.053777
18.080054
18.161475
18.357849
18.805686
19.676455
21.106162
22.010098
21.834549
21.523839
20.978717
20.849152
21.335207
22.453436
24.14479
26.329399
28.806207
31.456732
34.170829
36.824456
39.321026
41.581741
43.545987
45.172003
46.431364
47.304317
47.782745
47.869424
17.522672
17.580266
17.726335
18.021162
18.594976
19.4955
20.815941
20.998815
20.716879
20.351846
20.043337
20.11029
20.724732
21.847075
23.466956
25.479494
27.729737
30.116737
32.533284
34.881858
37.080749
39.061916
40.774818
42.183741
43.265581
44.007527
44.402483
44.452194
17.072123
17.152762
17.347061
17.704891
18.267959
19.109807
20.079723
20.084277
19.802426
19.3632
19.209726
19.451493
20.184346
21.298766
22.849337
24.706152
26.761458
28.920648
31.082586
33.175339
35.124872
36.875065
38.38199
39.614687
40.553328
41.188809
41.51768
41.541079
16.682143
16.778895
17.005349
17.3862
17.965445
18.825502
19.34647
19.255613
19.03137
18.621636
18.55265
18.900401
19.695375
20.805805
22.2853
24.011171
25.899313
27.859302
29.805493
31.68216
33.422288
34.979647
36.315061
37.402209
38.223806
38.772371
39.046527
39.049091
16.332209
16.438785
16.682731
17.078498
17.662364
18.416638
18.597154
18.488819
18.307948
17.999866
18.005502
18.438075
19.246979
20.343664
21.757795
23.376986
25.118247
26.905782
28.668837
30.361702
31.925275
33.319594
34.511666
35.477965
36.203201
36.681194
36.910924
36.895963
15.98684
16.094141
16.333699
16.704512
17.202755
17.733778
17.825061
17.737576
17.601831
17.429921
17.512603
18.01444
18.817336
19.902194
21.249301
22.771303
24.381209
26.017594
27.628344
29.166396
30.582413
31.840963
32.914802
33.781735
34.428528
34.849963
35.045312
35.017639
15.624921
15.724758
15.942634
16.264214
16.660574
17.035597
17.084449
17.004184
16.877416
16.839378
17.034374
17.588752
18.398541
19.468038
20.746897
22.176242
23.673539
25.181579
26.665913
28.074419
29.368183
30.515052
31.491389
32.277363
32.860982
33.237829
33.407425
33.37225
15.244054
15.332888
15.52351
15.795589
16.116327
16.403253
16.433318
16.363952
16.233605
16.28368
16.601213
17.193873
18.007095
19.05083
20.269908
21.617529
23.018883
24.421701
25.796416
27.093832
28.283725
29.336361
30.230576
30.949242
31.480773
31.821687
31.971684
31.93185
14.849687
14.927751
15.093283
15.324882
15.591499
15.820748
15.841147
15.802834
15.705081
15.815781
16.213854
16.82693
17.640243
18.657494
19.823788
21.101961
22.420606
23.73476
25.01339
26.213892
27.314042
28.285865
29.110256
29.771599
30.25971
30.571318
30.706003
30.663855
14.447204
14.515873
14.66028
14.859461
15.084521
15.271432
15.288854
15.281777
15.240995
15.410892
15.848001
16.478877
17.294997
18.284327
19.403458
20.6223
21.869725
23.104327
24.295158
25.412791
26.436243
27.339233
28.104487
28.717488
29.169783
29.457702
29.580832
29.539097
14.043264
14.104308
14.232052
14.407082
14.604125
14.765223
14.787383
14.805375
14.827324
15.061105
15.516673
16.159213
16.976877
17.936422
19.015106
20.177241
21.358737
22.519728
23.63217
24.68069
25.638074
26.482078
27.19695
27.769306
28.191443
28.460457
28.575387
28.536078
13.646673
13.702684
13.820298
13.983727
14.175159
14.300409
14.330917
14.373129
14.454834
14.741802
15.21192
15.86152
16.673803
17.606581
18.648322
19.754634
20.87509
21.972463
23.020612
24.009104
24.908162
25.700775
26.372293
26.910234
27.307287
27.561451
27.670953
27.635724
13.263676
13.317087
13.429967
13.589043
13.778644
13.868165
13.913895
13.981968
14.127846
14.441688
14.925816
15.579464
16.382041
17.290013
18.294353
19.350507
20.417563
21.460762
22.455567
23.389861
24.236725
24.984104
25.618115
26.126896
26.503445
26.745834
26.852392
26.822752
12.894961
12.946276
13.054448
13.205415
13.379055
13.46097
13.527907
13.625067
13.826321
14.158334
14.655445
15.316085
16.103432
16.985298
17.952469
18.963513
19.983237
20.978484
21.925106
22.807384
23.611163
24.320648
24.923271
25.408015
25.768271
26.002188
26.107819
26.085028
12.540274
12.589179
12.691651
12.833027
12.991471
13.081605
13.170222
13.306589
13.534302
13.888137
14.398414
15.064799
15.832922
16.689209
17.621009
18.590902
19.568691
20.520593
21.423673
22.261787
23.030279
23.706595
24.282344
24.747065
25.094369
25.322327
25.428475
25.413603
12.199992
12.246567
12.343912
12.477825
12.627417
12.728117
12.839959
13.006766
13.254782
13.628797
14.150006
14.815815
15.568181
16.403003
17.301874
18.234901
19.176587
20.089122
20.954875
21.757868
22.492694
23.138266
23.68989
24.137216
24.473808
24.697491
24.805724
24.799512
11.875657
11.920442
12.014174
12.143725
12.289915
12.401062
12.539697
12.71725
12.989998
13.382236
13.915522
14.576416
15.315678
16.13296
16.999511
17.898784
18.806638
19.683387
20.515567
21.286063
21.987215
22.606925
23.138192
23.571113
23.899395
24.120739
24.232625
24.235951
11.569476
11.613285
11.705345
11.833842
11.981378
12.10748
12.265361
12.454421
12.746029
13.153453
13.698977
14.350053
15.076384
15.875296
16.711681
17.581771
18.455636
19.300204
20.100521
20.840316
21.51107
22.110191
22.623828
23.044742
23.366698
23.587274
23.703961
23.71753
11.282334
11.325785
11.417458
11.546481
11.696513
11.838384
12.00649
12.212147
12.518442
12.938159
13.490069
14.130603
14.84424
15.623642
16.4337
17.276699
18.118179
18.933321
19.705049
20.418531
21.065705
21.645701
22.142817
22.55308
22.87001
23.09091
23.213172
23.237359
11.014531
11.058024
11.150115
11.280662
11.43423
11.5872
11.766474
11.988048
12.306981
12.74003
13.288744
13.9188
14.619784
15.37942
16.163921
16.979591
17.792263
18.581094
19.328274
20.019132
20.646127
21.20632
21.689509
22.091113
22.404542
22.626925
22.755595
22.790932
10.766018
10.809782
10.902717
11.035222
11.192397
11.35406
11.544917
11.780965
12.111434
12.556232
13.096064
13.714989
14.404333
15.137293
15.899528
16.690623
17.478252
18.2452
18.969105
19.638993
20.246902
20.788496
21.26162
21.656481
21.967834
22.192753
22.328556
22.375457
10.536011
10.580132
10.674055
10.808533
10.968982
11.139079
11.340508
11.589127
11.931263
12.37844
12.909217
13.517165
14.193118
14.899985
15.643509
16.411509
17.176305
17.922357
18.624308
19.27585
19.86742
20.395222
20.859571
21.248111
21.557937
21.78591
21.92922
21.98786
10.323627
10.368293
10.463398
10.599989
10.764015
10.941854
11.152808
11.41248
11.765992
12.207354
12.728394
13.325393
13.986807
14.67518
15.399466
16.144393
16.886503
17.611082
18.293968
18.929871
19.507844
20.024874
20.479291
20.862541
21.171628
21.403212
21.554377
21.624901
10.12861
10.173875
10.270224
10.408965
10.576708
10.761783
10.980896
11.253079
11.60964
12.043487
12.555431
13.143544
13.789986
14.461919
15.168987
15.889793
16.60915
17.312826
17.978134
18.599832
19.165338
19.672031
20.116404
20.497036
20.806565
21.042507
21.201963
21.28456
9.9504689
9.9961991
10.093665
10.234437
10.405733
10.597319
10.823456
11.107907
11.459593
11.887473
12.391869
12.972605
13.602196
14.258435
14.947837
15.644446
16.342375
17.026777
17.676762
18.284775
18.838753
19.336359
19.773822
20.152577
20.462393
20.702684
20.870437
20.965037
9.7880808
9.8341972
9.9326412
10.07524
10.249843
10.44673
10.68174
10.969102
11.316002
11.738333
12.235496
12.806909
13.419864
14.060982
14.732073
15.407561
16.087637
16.754044
17.390031
17.984453
18.528176
19.018287
19.451002
19.826234
20.136175
20.380713
20.556665
20.663118
9.6402402
9.686626
9.7857771
9.9297108
10.106755
10.308553
10.54926
10.83402
11.178249
11.595582
12.087021
12.645745
13.243386
13.8704
14.524347
15.180731
15.844036
16.49299
17.115417
17.697026
18.231715
18.714476
19.141903
19.512294
19.824205
20.073775
20.258324
20.37676
9.5056111
9.5520903
9.6515289
9.7960562
9.9744212
10.180328
10.420651
10.704739
11.047207
11.460441
11.94712
12.491182
13.074271
13.688748
14.323837
14.961188
15.607088
16.240077
16.849334
17.419335
17.946091
18.422074
18.844972
19.212775
19.527678
19.782179
19.975219
20.105432
9.3827685
9.4291511
9.5284505
9.6729023
9.8517631
10.059039
10.298382
10.581824
10.922517
11.332219
11.811255
12.340917
12.909705
13.510098
14.122256
14.744199
15.374514
15.993051
16.589916
17.150206
17.670489
18.141575
18.56199
18.929939
19.246766
19.5054
19.706348
19.847816
9.2703819
9.3164672
9.415181
9.558863
9.7371746
9.9440002
10.182994
10.465673
10.804618
11.212369
11.678814
12.193963
12.747859
13.332237
13.925204
14.534551
15.1501
15.755342
16.341276
16.894446
17.408062
17.874616
18.29269
18.660276
18.977157
19.241014
19.450313
19.603082
9.1673051
9.2129729
9.3107814
9.4532213
9.630503
9.8367373
10.075183
10.35684
10.694555
11.09796
11.550488
12.052057
12.592935
13.162763
13.74193
14.337957
14.937901
15.529792
16.10515
16.650666
17.156819
17.619027
18.034777
18.401864
18.719682
18.989969
19.207536
19.371419
9.0727867
9.118006
9.2147788
9.3558704
9.5322765
9.7377669
9.9755695
10.256098
10.593807
10.987333
11.427912
11.917767
12.448201
13.003778
13.569904
14.152679
14.735966
15.314057
15.878078
16.414378
16.914178
17.373007
17.787497
18.15545
18.476597
18.752394
18.977454
19.151834
8.9863488
9.0310748
9.1267907
9.2665859
9.442265
9.6469984
9.8840624
10.164862
10.499172
10.881583
11.311196
11.790335
12.310043
12.851556
13.405004
13.974037
14.54122
15.106054
15.658983
16.186333
16.680587
17.136787
17.550729
17.92015
18.244937
18.525389
18.757745
18.942353
8.9074193
8.9515982
9.0462341
9.1846928
9.3594939
9.5632646
9.7994409
10.080494
10.406514
10.779473
11.199047
11.668615
12.175705
12.70387
13.245462
13.801051
14.353733
14.907002
15.448878
15.967651
16.457056
16.910636
17.323981
17.694621
18.022429
18.306489
18.547112
18.742224
8.8356053
8.8792369
8.9728061
9.1099564
9.2839024
9.486572
9.7230056
9.9996631
10.317647
10.681996
11.092615
11.553766
12.047161
12.562544
13.093402
13.635351
14.174101
14.71617
15.247081
15.758182
16.243637
16.69385
17.106324
17.478022
17.80882
18.097497
18.346651
18.551792
8.7703695
8.8134454
8.9059175
9.0416592
9.2144394
9.4161946
9.6505403
9.9203147
10.231901
10.588436
10.990923
11.442575
11.922565
12.425536
12.945116
13.470022
13.997495
14.529358
15.051239
15.556355
16.037477
16.484435
16.896638
17.270027
17.604634
17.899268
18.155951
18.370295
8.7109715
8.753419
8.8446062
8.9785873
9.1495373
9.3494702
9.5789259
9.8434954
10.149617
10.49923
10.895114
11.334243
11.801015
12.291369
12.798413
13.308093
13.826938
14.349187
14.863063
15.36258
15.838627
16.283499
16.69606
17.071596
17.410253
17.710736
17.97428
18.19739
8.6570788
8.6988788
8.7887565
8.9210199
9.0903654
9.2860007
9.5107992
9.7704755
10.071495
10.414873
10.803178
11.228714
11.683426
12.162608
12.658102
13.157042
13.666182
14.178302
14.683908
15.177297
15.648719
16.092308
16.505213
16.882999
17.225296
17.531027
17.800074
18.032364
8.6084843
8.6496557
8.7382837
8.8688879
9.0365153
9.2267126
9.4470892
9.7021566
9.9984438
10.33698
10.714237
11.127845
11.572158
12.042155
12.526306
13.015685
13.51565
14.016675
14.51344
15.000265
15.467297
15.909654
16.32288
16.70296
17.048551
17.359211
17.634195
17.875832
8.56443
8.6048937
8.6920468
8.8204746
8.9852673
9.171239
9.3877974
9.6388524
9.9315872
10.263989
10.629651
11.032681
11.467287
11.928078
12.401294
12.881881
13.372581
13.862319
14.350515
14.830992
15.294
15.735573
16.148653
16.530652
16.879593
17.195449
17.477445
17.727507
8.5240343
8.5636748
8.6490712
8.7749018
8.9363424
9.1191843
9.3324518
9.5799913
9.8697676
10.192909
10.548652
10.942217
11.368237
11.818768
12.282196
12.754035
13.235004
13.714607
14.19512
14.669679
15.128895
15.569117
15.981536
16.36539
16.717827
17.038923
17.327794
17.585808
8.4869033
8.5256864
8.6092766
8.732554
8.8909621
9.0714177
9.2820312
9.5278687
9.8115787
10.125195
10.471922
10.857042
11.275416
11.71524
12.169344
12.633014
13.104355
13.574545
14.048209
14.516252
14.971008
15.408717
15.820818
16.206624
16.562526
16.888637
17.183908
17.449018
8.4528138
8.4907777
8.5726621
8.693581
8.8492648
9.0276556
9.2363699
9.4788357
9.7542183
10.059224
10.398183
10.775959
11.186126
11.615877
12.061204
12.517471
12.978756
13.439884
13.906476
14.367751
14.818131
15.253353
15.665248
16.052978
16.412217
16.743081
17.044343
17.31626
8.4214419
8.4586209
8.5388706
8.6575122
8.8104962
8.9866804
9.1926088
9.4286536
9.697174
9.9939833
10.327082
10.69897
11.099448
11.519456
11.955745
12.403354
12.852971
13.307081
13.767238
14.22314
14.670304
15.103178
15.514976
15.904658
16.267236
16.60287
16.910224
17.18957
8.3925488
8.4289498
8.5075686
8.6239077
8.7740932
8.9476724
9.149208
9.3793654
9.641952
9.9320326
10.259972
10.624995
11.015321
11.425863
11.853465
12.291623
12.731458
13.180136
13.634283
14.085464
14.529781
14.960257
15.372249
15.763903
16.129767
16.470119
16.783549
17.070423
8.3659634
8.4015842
8.4785555
8.5925116
8.7396192
8.9100276
9.1071689
9.3327526
9.5904418
9.8754455
10.198303
10.55418
10.935259
11.337364
11.75769
12.187244
12.620241
13.063049
13.510139
13.956099
14.3971
14.825738
15.238858
15.631658
16.000331
16.344999
16.664097
16.958002
8.3415701
8.3764157
8.4516802
8.5630744
8.7069018
8.8740644
9.0675548
9.2893661
9.5429211
9.8240564
10.140738
10.487271
10.859824
11.254261
11.667488
12.089233
12.516203
12.952969
13.392658
13.833482
14.271153
14.698269
15.112018
15.50536
15.876906
16.225492
16.549794
16.850114
8.319003
8.3530437
8.4265318
8.5353257
8.6760063
8.8402248
9.0304705
9.2489827
9.499043
9.7766443
10.085495
10.423916
10.788877
11.176851
11.582085
11.9965
12.417538
12.847788
13.280834
13.716923
14.151236
14.576415
14.989703
15.384115
15.758744
16.110997
16.44037
16.746506
8.2979336
8.3311782
8.4029849
8.5094276
8.6473213
8.8090321
8.9965547
9.2124038
9.4602379
9.7323097
10.033552
10.364614
10.722771
11.1046
11.501675
11.90937
12.325268
12.748904
13.175739
13.607683
14.038033
14.460793
14.873211
15.268594
15.645958
16.001805
16.336141
16.647898
8.2785098
8.3110489
8.3813906
8.4858059
8.6213526
8.7810742
8.9664963
9.1809028
9.4249092
9.6903345
9.9848288
10.309263
10.661537
11.036225
11.42597
11.827626
12.238707
12.655667
13.076633
13.50419
13.930192
14.350486
14.761904
15.158048
15.5378
15.897139
16.236145
16.55352
8.2609956
8.2929223
8.3620004
8.4646797
8.5982366
8.7563108
8.9402397
9.1523636
9.3904943
9.6504631
9.9389836
10.257619
10.604552
10.971536
11.354366
11.750195
12.156063
12.566781
12.982091
13.404972
13.827285
14.245682
14.655954
15.052684
15.434591
15.797159
16.140501
16.463196
8.2456077
8.2769944
8.344957
8.4460983
8.5778722
8.7344387
8.9164759
9.1245066
9.3576811
9.612946
9.8962689
10.21017
10.55079
10.910581
11.287221
11.678255
12.078234
12.482925
12.893069
13.311337
13.730252
14.146888
14.555744
14.953097
15.336752
15.702104
16.049276
16.376713
8.2323349
8.2632141
8.3301162
8.429757
8.5596994
8.7144039
8.8934845
9.0975219
9.3267162
9.5779832
9.8568844
10.166516
10.500164
10.853555
11.224633
11.610912
12.004568
12.403389
12.808993
13.22245
13.637989
14.052611
14.460364
14.858712
15.243368
15.610977
15.961424
16.293013
8.2209213
8.2512809
8.3170792
8.4151042
8.542913
8.6952138
8.8711924
9.0720259
9.2979954
9.5459328
9.8216854
10.125522
10.452418
10.79973
11.165468
11.545704
11.933175
12.325757
12.727634
13.136837
13.54946
13.962209
14.369176
14.768171
15.153413
15.523196
15.876719
16.212245
8.2111369
8.2409201
8.3055214
8.4017894
8.5272906
8.677092
8.8503467
9.0484685
9.2717485
9.5171502
9.7891169
10.086305
10.406994
10.748776
11.109574
11.483254
11.864928
12.252474
12.650686
13.056014
13.46616
13.8768
14.282643
14.681552
15.067652
15.439921
15.796244
16.135513
8.2027224
8.2319112
8.295284
8.3897753
8.5130478
8.6605246
8.8313308
9.0270943
9.2481507
9.4910107
9.7576037
10.04913
10.364417
10.701478
11.05715
11.424968
11.801957
12.186112
12.579759
12.981057
13.388558
13.796474
14.200851
14.599349
14.986359
15.360897
15.719794
16.062809
8.1955912
8.224235
8.2864566
8.3792998
8.5005506
8.6459981
8.8147486
9.0086935
9.2282245
9.4671532
9.7285264
10.015046
10.325685
10.658662
11.008538
11.371077
11.743787
12.124407
12.51344
12.910713
13.315117
13.720264
14.12322
14.521168
14.908848
15.285199
15.646645
15.993103
8.1899996
8.21816
8.2793662
8.3707817
8.4903373
8.6341943
8.8014695
8.9945965
9.2109972
9.4452102
9.7019886
9.9840851
10.290811
10.619235
10.963426
11.321164
11.690136
12.066611
12.451283
12.844743
13.245886
13.648576
14.050423
14.447361
14.83533
15.213088
15.576654
15.925957
8.186269
8.2140208
8.2743764
8.3646184
8.4828214
8.6254931
8.7918695
8.9828736
9.1948225
9.4251141
9.6778606
9.9561433
10.259446
10.582508
10.921698
11.275175
11.640665
12.01289
12.393612
12.783769
13.181334
13.581466
13.981817
14.377423
14.765683
15.144514
15.509843
15.861628
8.1845287
8.2119209
8.2715248
8.3607142
8.4776604
8.6191006
8.7837054
8.9712588
9.1798677
9.4069677
9.6564188
9.9318498
10.230923
10.548737
10.883346
11.232998
11.5945
11.96283
12.339916
12.72663
13.120474
13.518059
13.91671
14.311483
14.700505
15.079708
15.446357
15.800217
8.1846324
8.211667
8.2705071
8.358554
8.4739773
8.6136221
8.7756607
8.9605198
9.1665095
9.3910385
9.6379689
9.9104513
10.204559
10.517781
10.848337
11.1946
11.551697
11.916354
12.290023
12.672933
13.063502
13.458945
13.855861
14.249746
14.638855
15.017921
15.385774
15.741343
8.1864558
8.2130812
8.2710254
8.357715
8.4713369
8.6088984
8.7686677
8.9512857
9.1551642
9.3776036
9.6226363
9.8910621
10.180701
10.489849
10.816907
11.159449
11.512341
11.873717
12.244398
12.623303
13.01071
13.40401
13.798582
14.190992
14.579302
14.958434
15.327511
15.684345
8.1896653
8.2158406
8.2728152
8.3580885
8.4699397
8.6055875
8.7634012
8.9442255
9.1465395
9.3677746
9.6098614
9.8739091
10.159558
10.465075
10.789023
11.127159
11.476158
11.834412
12.201894
12.576774
12.961047
13.351805
13.743846
14.1347
14.522092
14.9012
15.271166
15.629035
8.1940256
8.2197799
8.2758679
8.3598689
8.4701548
8.6041661
8.7603932
8.9399058
9.1413336
9.3603909
9.5985367
9.858849
10.141011
10.443501
10.763841
11.0976
11.442998
11.798517
12.162169
12.533207
12.914489
13.302441
13.692205
14.081804
14.467875
14.846606
15.21705
15.575923
8.1998047
8.2251958
8.2805188
8.3634371
8.4724214
8.6051341
8.7602107
8.939051
9.138576
9.3541281
9.5889311
9.8460026
10.125148
10.424893
10.740968
11.070809
11.412925
11.765702
12.125351
12.492805
12.87137
13.256233
13.643661
14.03167
14.416052
14.794317
15.165102
15.524784
8.2073446
8.2324342
8.2871273
8.3691693
8.4771282
8.6088762
8.7632341
8.9406621
9.1369978
9.3494981
9.581381
9.8357097
10.112523
10.408642
10.720427
11.046478
11.385421
11.73451
12.089874
12.454295
12.830132
13.211931
13.597091
13.983348
14.366517
14.744834
15.115494
15.475581
8.2168304
8.2416594
8.2958062
8.3770795
8.4841146
8.6149008
8.7679432
8.9428517
9.1363697
9.346348
9.5757882
9.827935
10.102019
10.393824
10.701659
11.02415
11.359938
11.704922
12.056271
12.418448
12.791282
13.170407
13.553725
13.938231
14.320259
14.698316
15.068153
15.428352
8.2282185
8.2527871
8.3063694
8.3867884
8.4926547
8.6219955
8.7730257
8.9456285
9.1369339
9.344866
9.5723513
9.8225229
10.092919
10.380921
10.685298
11.004859
11.337244
11.67852
12.026822
12.386654
12.756075
13.132506
13.513837
13.896083
14.276546
14.653547
15.022648
15.383123
8.2413482
8.2655976
8.3184869
8.3978481
8.5022812
8.6299055
8.7790567
8.9497817
9.1393827
9.3457635
9.5720084
9.8193198
10.085963
10.370556
10.671891
10.988752
11.317451
11.655332
12.001001
12.357807
12.723667
13.097255
13.476151
13.855999
14.234789
14.61045
14.978865
15.339397
8.2558387
8.2797323
8.3318625
8.4101108
8.5131407
8.6391919
8.7867254
8.9559608
9.144327
9.3498479
9.5740033
9.8177786
10.08116
10.362761
10.661596
10.975036
11.300106
11.634914
11.978218
12.331544
12.693926
13.064796
13.44085
13.818286
14.195423
14.569266
14.936608
15.296706
8.2715209
8.2950923
8.346536
8.4237931
8.5255925
8.6503072
8.7965392
8.9646917
9.1523383
9.3561297
9.57718
9.8179706
10.078533
10.357616
10.653769
10.963386
11.2851
11.61711
11.957863
12.307693
12.666786
13.034901
13.40778
13.782679
14.157795
14.529515
14.895716
15.255292
8.288699
8.311995
8.3628568
8.4392881
8.5400912
8.6637794
8.8091168
8.9766315
9.1625254
9.3634619
9.581797
9.8199698
10.078074
10.354959
10.647638
10.953778
11.272415
11.601912
11.939503
12.285953
12.641785
13.006803
13.376538
13.748921
14.121906
14.491903
14.857442
15.215979
8.3077148
8.3307843
8.3811709
8.456937
8.5569522
8.6798566
8.8244506
8.9905075
9.1736587
9.3721434
9.5881619
9.8241712
10.080426
10.354491
10.643518
10.946435
11.262273
11.589058
11.92342
12.266749
12.619665
12.981278
13.34802
13.718173
14.088784
14.456925
14.821271
15.178048
8.328646
8.3515105
8.4014621
8.4766016
8.5758027
8.6977224
8.840972
9.0048164
9.1857735
9.3823097
9.5964834
9.8308735
10.084921
10.355487
10.64128
10.941289
11.254625
11.578119
11.909527
12.249922
12.599809
12.957868
13.321662
13.68928
14.057034
14.422916
14.785327
15.140504
8.3514435
8.3740745
8.4235134
8.4978571
8.5959713
8.7165166
8.8580388
9.0200285
9.1992556
9.3942665
9.6070863
9.8397759
10.090762
10.35815
10.641033
10.938503
11.248978
11.569053
11.897612
12.235237
12.581453
12.935978
13.29673
13.661397
14.026379
14.390049
14.750335
15.103955
8.3757706
8.3981181
8.4469396
8.5203468
8.6172401
8.7363533
8.8763134
9.0367476
9.2146175
9.4085287
9.6201187
9.8502378
10.098083
10.362551
10.642749
10.937767
11.244795
11.561722
11.887596
12.222406
12.564759
12.915887
13.273769
13.635195
13.997332
14.358698
14.716508
15.068364
8.4012727
8.4233333
8.4715432
8.5440677
8.6398454
8.7576858
8.8963216
9.055521
9.2324193
9.4253029
9.6348113
9.8620123
10.107103
10.368999
10.646966
10.938902
11.242408
11.556252
11.879542
12.210858
12.549377
12.89717
13.25199
13.610028
13.96934
14.32825
14.683645
15.033993
8.4280721
8.4498828
8.49756
8.5693167
8.6641411
8.7809242
8.9185132
9.0768211
9.2525797
9.4435459
9.6504397
9.8751025
10.117755
10.37743
10.652742
10.940977
11.241023
11.551699
11.872025
12.198975
12.534363
12.879298
13.23086
13.585795
13.942516
14.298899
14.652105
15.000933
8.4564304
8.4780265
8.5252482
8.5963533
8.6903788
8.8062914
8.9430237
9.1001343
9.2738448
9.4623816
9.6669591
9.889345
10.129823
10.387222
10.659115
10.94389
11.240671
11.548459
11.865241
12.188389
12.521235
12.863321
13.211477
13.563403
13.917536
14.27104
14.621747
14.968379
8.4864731
8.5078729
8.5546754
8.6251727
8.7184171
8.8333839
8.9689119
9.1241497
9.2955726
9.4820589
9.6846431
9.905106
10.143778
10.398282
10.666765
10.948382
11.242285
11.547223
11.860547
12.180728
12.510643
12.849159
13.193697
13.542434
13.893583
14.243947
14.591942
14.936072
8.5182208
8.5394052
8.5857343
8.6555004
8.7477473
8.8614442
8.9953611
9.1486849
9.318262
9.5030963
9.7040962
9.9231575
10.159361
10.410537
10.675907
10.954629
11.245901
11.547505
11.857662
12.175018
12.501946
12.836508
13.177435
13.523042
13.870845
14.218125
14.563578
14.905153
8.5513859
8.5723103
8.6180701
8.68697
8.7780732
8.8903907
9.0227569
9.1744512
9.3425642
9.5261355
9.7260668
9.9430503
10.176116
10.424336
10.686949
10.963223
11.251562
11.54984
11.856883
12.17152
12.495043
12.825626
13.163022
13.505412
13.849665
14.193872
14.536658
14.875443
8.5855776
8.6062334
8.6514169
8.719478
8.8095168
8.9205872
9.0516007
9.2019436
9.3689196
9.5515364
9.7496984
9.963801
10.194088
10.439654
10.699844
10.973554
11.258506
11.553671
11.857629
12.169522
12.489275
12.815959
13.149841
13.488593
13.829229
14.170231
14.510018
14.845882
8.6208619
8.6412789
8.6859503
8.7532659
8.8423654
8.9523514
9.0822168
9.2314486
9.397289
9.57823
9.773842
9.9853991
10.213198
10.456398
10.714345
10.984921
11.266568
11.558655
11.859799
12.168545
12.484544
12.80746
13.137873
13.472731
13.809789
14.147683
14.484162
14.817001
8.65746
8.677665
8.7218824
8.7885381
8.8768084
8.9858378
9.1146729
9.2626293
9.4266778
9.6053579
9.7987502
10.00811
10.233781
10.475039
10.730177
10.997362
11.27583
11.564937
11.863168
12.168464
12.480854
12.800129
13.126814
13.457748
13.791293
14.125942
14.458945
14.788789
8.6954547
8.7154622
8.7592543
8.825283
8.9127296
9.0207292
9.1482999
9.2945261
9.4565166
9.6332758
9.8247642
10.03227
10.256217
10.495
10.74679
11.010791
11.286227
11.572491
11.867254
12.169099
12.477816
12.793558
13.116197
13.443282
13.773346
14.104444
14.434055
14.760925
8.7348754
8.7546642
8.7979742
8.8632617
8.9497091
9.0564402
9.1824671
9.3268865
9.4871169
9.6622366
9.8521097
10.058102
10.279808
10.515414
10.764089
11.025072
11.297657
11.580587
11.871479
12.169721
12.474522
12.786924
13.105686
13.42918
13.755908
14.08334
14.409587
14.733482
8.7753382
8.7948673
8.8376082
8.902035
8.9873543
9.0927128
9.2172584
9.3600624
9.5187755
9.6925009
9.8810752
10.085027
10.303753
10.536308
10.781996
11.040097
11.309633
11.588726
11.875943
12.170729
12.472093
12.781047
13.096003
13.415969
13.739146
14.062878
14.385782
14.706556
8.8164564
8.8357224
8.8778971
8.9414933
9.0257423
9.1298197
9.2530578
9.3944563
9.5518888
9.7244066
9.9111338
10.112335
10.328176
10.557898
10.800829
11.056255
11.322375
11.597854
11.88176
12.173571
12.471684
12.776796
13.087848
13.404226
13.723453
14.043444
14.362982
14.680363
8.8583649
8.8773934
8.9190557
8.9818992
9.0651869
9.1681336
9.2901691
9.4302893
9.586369
9.7571398
9.9414188
10.140054
10.353334
10.580556
10.821123
11.073477
11.336023
11.608107
11.888904
12.177688
12.472254
12.773601
13.080812
13.39337
13.708523
14.024803
14.340928
14.654702
8.9012154
8.9200251
8.9612153
9.0233634
9.105759
9.2076491
9.3284691
9.4670837
9.6213291
9.7899268
9.9719814
10.16837
10.379421
10.60452
10.842329
11.091216
11.350444
11.619352
11.897256
12.182641
12.473722
12.771381
13.074795
13.383131
13.694214
14.006747
14.319212
14.629305
8.9451006
8.9636976
9.0044222
9.0658658
9.147318
9.2480136
9.3673805
9.5041715
9.6564232
9.8230386
10.003039
10.197549
10.406751
10.629402
10.863997
11.109753
11.365974
11.632067
11.906932
12.188579
12.476178
12.77018
13.069502
13.373473
13.680525
13.989354
14.297882
14.604278
8.9899423
9.0082965
9.0484886
9.1091243
9.1894944
9.2888374
9.4066018
9.5415906
9.6920546
9.8569051
10.03513
10.22812
10.435116
10.654794
10.88636
11.129165
11.382542
11.645621
11.916858
12.1947
12.478747
12.768852
13.063882
13.363677
13.666828
13.971864
14.276398
14.57915
9.0353516
9.0534418
9.0930616
9.1528475
9.2321187
9.3301558
9.446421
9.5797802
9.7286873
9.8920371
10.068775
10.259675
10.463798
10.680496
10.909113
11.149021
11.399466
11.65893
11.926306
12.200418
12.48092
12.766698
13.057835