/*--------------------------------*- C++ -*----------------------------------*\
  =========                 |
  \\      /  F ield         | OpenFOAM: The Open Source CFD Toolbox
   \\    /   O peration     | Website:  https://openfoam.org
    \\  /    A nd           | Version:  7
     \\/     M anipulation  |
\*---------------------------------------------------------------------------*/
FoamFile
{
    version     2.0;
    format      ascii;
    class       volScalarField;
    location    "50000";
    object      mu_lam;
}
// * * * * * * * * * * * * * * * * * * * * * * * * * * * * * * * * * * * * * //

dimensions      [1 -1 -1 0 0 0 0];

internalField   nonuniform List<scalar> 
113400
(
4.0237589e-05
4.0237589e-05
4.0237589e-05
4.0237589e-05
3.8042934e-05
3.7358848e-05
3.6345417e-05
3.4763215e-05
3.2234465e-05
2.7933599e-05
2.689638e-05
2.7429511e-05
2.9198981e-05
3.8892249e-05
1.9977067e-05
2.0643899e-05
2.1496586e-05
2.283874e-05
2.3999464e-05
2.5493665e-05
2.7105119e-05
2.9084199e-05
3.1213744e-05
3.2385157e-05
3.2552193e-05
3.2080709e-05
2.8908032e-05
1.8455165e-05
3.9741882e-05
3.931064e-05
3.8609161e-05
3.782058e-05
3.6533708e-05
3.4825287e-05
3.2693399e-05
3.0037193e-05
3.00828e-05
2.9809239e-05
2.9726409e-05
3.3318862e-05
3.3756616e-05
2.3366054e-05
2.1302587e-05
2.2162635e-05
2.3280352e-05
2.476738e-05
2.6338084e-05
2.8079238e-05
3.0159423e-05
3.2418839e-05
3.494139e-05
3.7245205e-05
3.938084e-05
4.1458463e-05
4.365376e-05
4.5945455e-05
3.9713271e-05
3.8991595e-05
3.7780681e-05
3.6290923e-05
3.4510413e-05
3.2303651e-05
3.0960653e-05
3.0979933e-05
3.1028776e-05
3.169431e-05
3.2867249e-05
3.7962221e-05
2.7444397e-05
2.1808615e-05
2.2082352e-05
2.2762066e-05
2.4325682e-05
2.5603345e-05
2.741855e-05
2.9288867e-05
3.1459664e-05
3.3756051e-05
3.6110274e-05
3.8494111e-05
4.0779868e-05
4.2965389e-05
4.5098569e-05
4.7127524e-05
3.9654825e-05
3.8686498e-05
3.7081688e-05
3.505275e-05
3.292104e-05
3.1722573e-05
3.1549945e-05
3.1724628e-05
3.2062116e-05
3.267306e-05
3.6784837e-05
3.1548852e-05
2.2770771e-05
2.1749825e-05
2.2681567e-05
2.3592358e-05
2.5268312e-05
2.6700876e-05
2.8537182e-05
3.0429618e-05
3.2579316e-05
3.4821409e-05
3.6983671e-05
3.9163088e-05
4.1311268e-05
4.3362919e-05
4.5314995e-05
4.71566e-05
3.9631785e-05
3.8500192e-05
3.6685763e-05
3.472136e-05
3.3415681e-05
3.2607821e-05
3.2618408e-05
3.2700037e-05
3.3139571e-05
3.5335699e-05
3.6278535e-05
2.8191081e-05
2.2020414e-05
2.2254697e-05
2.3091898e-05
2.4364387e-05
2.5892034e-05
2.7489567e-05
2.9343599e-05
3.121106e-05
3.3196947e-05
3.5331809e-05
3.7426749e-05
3.9440238e-05
4.1393761e-05
4.3277198e-05
4.5086898e-05
4.6816668e-05
3.9684523e-05
3.85616e-05
3.6781634e-05
3.5826618e-05
3.4338205e-05
3.4106391e-05
3.348599e-05
3.3801036e-05
3.4663315e-05
3.814273e-05
3.2845288e-05
2.5249316e-05
2.1944785e-05
2.263794e-05
2.337993e-05
2.5026956e-05
2.6474343e-05
2.8199249e-05
3.0039558e-05
3.1855679e-05
3.3747697e-05
3.571837e-05
3.770703e-05
3.9646031e-05
4.15246e-05
4.3328402e-05
4.5069436e-05
4.6743168e-05
3.979782e-05
3.8985455e-05
3.7765294e-05
3.6381867e-05
3.5686999e-05
3.4669385e-05
3.4627634e-05
3.5038589e-05
3.6397842e-05
3.6994225e-05
3.1005771e-05
2.2753642e-05
2.2243316e-05
2.3052239e-05
2.3895844e-05
2.5639247e-05
2.6999776e-05
2.8796763e-05
3.0603687e-05
3.2394615e-05
3.4201529e-05
3.5997704e-05
3.7871689e-05
3.9723272e-05
4.1525995e-05
4.3277878e-05
4.4976121e-05
4.6618344e-05
3.9933808e-05
3.9301566e-05
3.879013e-05
3.7307125e-05
3.6166279e-05
3.5813336e-05
3.5685908e-05
3.5831603e-05
3.8652632e-05
3.4182929e-05
2.9037779e-05
2.2719226e-05
2.2671623e-05
2.3442619e-05
2.4504869e-05
2.619938e-05
2.750188e-05
2.9316636e-05
3.1098931e-05
3.28631e-05
3.4582584e-05
3.6337641e-05
3.804405e-05
3.9799957e-05
4.1539288e-05
4.3236283e-05
4.4888281e-05
4.6493654e-05
4.0151162e-05
3.9920113e-05
3.9000787e-05
3.7987558e-05
3.7142543e-05
3.6583473e-05
3.6564406e-05
3.7812498e-05
3.7852525e-05
3.2231877e-05
2.6214343e-05
2.2720743e-05
2.306105e-05
2.380367e-05
2.5059486e-05
2.6713313e-05
2.8024332e-05
2.9798643e-05
3.1534549e-05
3.3272922e-05
3.495429e-05
3.6628177e-05
3.8297763e-05
3.9925881e-05
4.1566319e-05
4.3215781e-05
4.4829049e-05
4.6400993e-05
4.0195544e-05
4.0088879e-05
3.9748376e-05
3.8546743e-05
3.7748232e-05
3.756755e-05
3.7509138e-05
3.8998433e-05
3.5954797e-05
3.1552738e-05
2.3944763e-05
2.2772988e-05
2.3462045e-05
2.4091557e-05
2.5579168e-05
2.7188928e-05
2.8480007e-05
3.0211128e-05
3.1907767e-05
3.3602391e-05
3.5260235e-05
3.6864926e-05
3.8489826e-05
4.0088315e-05
4.1652636e-05
4.3193952e-05
4.4772583e-05
4.6317167e-05
4.0264409e-05
4.0260201e-05
3.9730659e-05
3.9026988e-05
3.8597131e-05
3.8095736e-05
3.8807127e-05
3.8985814e-05
3.4253129e-05
3.0258727e-05
2.3685809e-05
2.3212815e-05
2.388367e-05
2.4532343e-05
2.6080355e-05
2.7618254e-05
2.8895918e-05
3.0581599e-05
3.2241524e-05
3.388832e-05
3.5516218e-05
3.710173e-05
3.8645938e-05
4.021708e-05
4.1756397e-05
4.3266907e-05
4.4748074e-05
4.6240227e-05
4.0279635e-05
4.0246436e-05
4.0042938e-05
3.9551612e-05
3.888062e-05
3.9232705e-05
3.9491288e-05
3.7460299e-05
3.2932723e-05
2.778677e-05
2.3780525e-05
2.3637432e-05
2.4307932e-05
2.5019518e-05
2.6573219e-05
2.8047581e-05
2.9293152e-05
3.0932693e-05
3.2553916e-05
3.4152835e-05
3.5749904e-05
3.7311594e-05
3.8831354e-05
4.0332179e-05
4.1848561e-05
4.3337936e-05
4.4801933e-05
4.6240291e-05
4.0299877e-05
4.0305068e-05
4.0176476e-05
3.9686113e-05
3.9807787e-05
3.9467596e-05
4.0249063e-05
3.6147357e-05
3.2291173e-05
2.5893995e-05
2.37479e-05
2.4023739e-05
2.4699429e-05
2.5492673e-05
2.7041124e-05
2.8460771e-05
2.9686059e-05
3.1250938e-05
3.2833204e-05
3.4392578e-05
3.5953289e-05
3.7489903e-05
3.8990686e-05
4.0460431e-05
4.1922194e-05
4.3392747e-05
4.4839516e-05
4.6262942e-05
4.0319068e-05
4.0323452e-05
4.0215118e-05
4.0212391e-05
3.989122e-05
4.0009702e-05
3.8976753e-05
3.5265315e-05
3.1443765e-05
2.4710413e-05
2.3832443e-05
2.4392144e-05
2.5059357e-05
2.5941328e-05
2.7471763e-05
2.8850532e-05
3.0056437e-05
3.1537795e-05
3.3083499e-05
3.4612274e-05
3.6131168e-05
3.7643688e-05
3.9125213e-05
4.0578095e-05
4.2006888e-05
4.3433309e-05
4.4864234e-05
4.6273114e-05
4.0341655e-05
4.0348992e-05
4.0361718e-05
4.0271083e-05
4.0135482e-05
4.0588768e-05
3.8017873e-05
3.4337871e-05
3.0333299e-05
2.5006517e-05
2.4250677e-05
2.4801125e-05
2.5380828e-05
2.6361956e-05
2.7843499e-05
2.9212118e-05
3.0399318e-05
3.1786163e-05
3.3305959e-05
3.4804597e-05
3.6284522e-05
3.7773952e-05
3.923651e-05
4.0672181e-05
4.2087313e-05
4.3481371e-05
4.4874174e-05
4.6269696e-05
4.0368054e-05
4.0380114e-05
4.0403391e-05
4.036612e-05
4.0463032e-05
4.071918e-05
3.7137163e-05
3.3606683e-05
2.9023815e-05
2.5192357e-05
2.4668322e-05
2.5224964e-05
2.5722013e-05
2.6774961e-05
2.8206745e-05
2.9567955e-05
3.0734153e-05
3.2023833e-05
3.3516904e-05
3.4984405e-05
3.6438868e-05
3.789236e-05
3.9335684e-05
4.0753571e-05
4.2153661e-05
4.3535235e-05
4.4898731e-05
4.6258101e-05
4.0399205e-05
4.0416009e-05
4.0453333e-05
4.0496341e-05
4.0662311e-05
3.9857592e-05
3.6431457e-05
3.2811595e-05
2.7821821e-05
2.5294221e-05
2.5064804e-05
2.5639602e-05
2.6072081e-05
2.7179505e-05
2.8561163e-05
2.9916663e-05
3.1060864e-05
3.2254294e-05
3.3720868e-05
3.5157207e-05
3.658665e-05
3.8004395e-05
3.9428187e-05
4.0827713e-05
4.2212058e-05
4.3579755e-05
4.4931553e-05
4.6266539e-05
4.0433718e-05
4.0457476e-05
4.0509815e-05
4.0612923e-05
4.0759058e-05
3.9359127e-05
3.5865533e-05
3.2227031e-05
2.6808055e-05
2.5311294e-05
2.5423159e-05
2.5991134e-05
2.6421817e-05
2.7556852e-05
2.8892752e-05
3.0229533e-05
3.136718e-05
3.2467495e-05
3.3905746e-05
3.5315162e-05
3.6719972e-05
3.8113185e-05
3.950868e-05
4.0890255e-05
4.2258862e-05
4.3612624e-05
4.4952383e-05
4.6273745e-05
4.0470944e-05
4.0503645e-05
4.0569526e-05
4.0688206e-05
4.0853543e-05
3.9043091e-05
3.5565284e-05
3.1944051e-05
2.6447405e-05
2.5320073e-05
2.5787954e-05
2.6338647e-05
2.6757979e-05
2.7871718e-05
2.9188832e-05
3.0511477e-05
3.1640794e-05
3.2713001e-05
3.4062498e-05
3.5449319e-05
3.6830027e-05
3.8203539e-05
3.9568641e-05
4.0933211e-05
4.2286675e-05
4.3627003e-05
4.4955148e-05
4.6262996e-05
4.0512792e-05
4.055771e-05
4.0631235e-05
4.0765005e-05
4.0946639e-05
3.8759995e-05
3.5333145e-05
3.163294e-05
2.6774513e-05
2.5680177e-05
2.6159544e-05
2.6681984e-05
2.709597e-05
2.8168844e-05
2.9465009e-05
3.0776336e-05
3.1893773e-05
3.295681e-05
3.4202082e-05
3.5567343e-05
3.6924464e-05
3.8278357e-05
3.9621545e-05
4.0961925e-05
4.2300441e-05
4.3627368e-05
4.494343e-05
4.6237986e-05
4.0558159e-05
4.0613552e-05
4.0694864e-05
4.0843219e-05
4.1038808e-05
3.8524932e-05
3.5122403e-05
3.1178249e-05
2.7056172e-05
2.6090788e-05
2.6498006e-05
2.7029415e-05
2.7437066e-05
2.8459558e-05
2.9734076e-05
3.1035357e-05
3.2139224e-05
3.3191111e-05
3.4335142e-05
3.56792e-05
3.7012894e-05
3.8346924e-05
3.967255e-05
4.0984574e-05
4.2307874e-05
4.3621269e-05
4.4922582e-05
4.6205427e-05
4.0605436e-05
4.067138e-05
4.0760549e-05
4.0923299e-05
4.1131512e-05
3.8355663e-05
3.5021737e-05
3.0790304e-05
2.7321866e-05
2.6501231e-05
2.6846577e-05
2.7379358e-05
2.7778173e-05
2.8743212e-05
2.9996806e-05
3.1270588e-05
3.2378237e-05
3.3417957e-05
3.4464157e-05
3.5787213e-05
3.7097404e-05
3.8411411e-05
3.971892e-05
4.1010786e-05
4.231101e-05
4.3610736e-05
4.489692e-05
4.6167654e-05
4.0654481e-05
4.073097e-05
4.0828245e-05
4.1005305e-05
4.1227159e-05
3.8213116e-05
3.4959442e-05
3.0522317e-05
2.7594495e-05
2.6888183e-05
2.7206537e-05
2.7729662e-05
2.8107122e-05
2.9022393e-05
3.0255955e-05
3.1493071e-05
3.2609219e-05
3.3640769e-05
3.4640812e-05
3.5894816e-05
3.7181966e-05
3.847541e-05
3.9764213e-05
4.1039263e-05
4.231292e-05
4.3598703e-05
4.4869364e-05
4.6127609e-05
4.0705273e-05
4.0792272e-05
4.0898147e-05
4.1093884e-05
4.1325803e-05
3.8084818e-05
3.4909008e-05
3.0346524e-05
2.7891575e-05
2.7251734e-05
2.7567484e-05
2.8080707e-05
2.8432266e-05
2.9298872e-05
3.0501269e-05
3.1713116e-05
3.2838047e-05
3.3858725e-05
3.485264e-05
3.6001516e-05
3.7266744e-05
3.853941e-05
3.9809578e-05
4.1067297e-05
4.2323704e-05
4.3586464e-05
4.4841532e-05
4.6086994e-05
4.0757913e-05
4.085683e-05
4.0977383e-05
4.1185425e-05
4.1237312e-05
3.7991603e-05
3.4857254e-05
3.0237802e-05
2.8193633e-05
2.7622606e-05
2.7932935e-05
2.8435857e-05
2.876431e-05
2.9574227e-05
3.0740994e-05
3.1931235e-05
3.3064205e-05
3.4072536e-05
3.5057944e-05
3.6106926e-05
3.7350948e-05
3.8603176e-05
3.9854988e-05
4.1095272e-05
4.2336078e-05
4.3575192e-05
4.4814024e-05
4.604655e-05
4.0821871e-05
4.0932641e-05
4.1060277e-05
4.1277308e-05
4.114145e-05
3.7943382e-05
3.4795207e-05
3.0226664e-05
2.8477079e-05
2.7997172e-05
2.8296789e-05
2.8789462e-05
2.9097195e-05
2.9847858e-05
3.0979504e-05
3.2148138e-05
3.3288898e-05
3.4284288e-05
3.5260344e-05
3.6212243e-05
3.7435068e-05
3.8666627e-05
3.9900031e-05
4.1122773e-05
4.2347738e-05
4.3572135e-05
4.4786367e-05
4.6006036e-05
4.0889515e-05
4.1010087e-05
4.1144239e-05
4.1369407e-05
4.1106443e-05
3.794155e-05
3.4781807e-05
3.0302147e-05
2.8793114e-05
2.8375848e-05
2.8663135e-05
2.9124239e-05
2.9431088e-05
3.0117434e-05
3.1215021e-05
3.2362674e-05
3.3511542e-05
3.4494751e-05
3.5457055e-05
3.6403645e-05
3.7519239e-05
3.8731318e-05
3.9945958e-05
4.1150849e-05
4.2359887e-05
4.3568133e-05
4.4762761e-05
4.5966067e-05
4.0958691e-05
4.1088948e-05
4.1229234e-05
4.1462332e-05
4.1102265e-05
3.7954376e-05
3.4848256e-05
3.0490081e-05
2.9142474e-05
2.875747e-05
2.9033078e-05
2.9458982e-05
2.9768477e-05
3.0382193e-05
3.1446415e-05
3.257386e-05
3.3719943e-05
3.4700579e-05
3.5647527e-05
3.6589161e-05
3.7602688e-05
3.8796386e-05
3.999302e-05
4.1180373e-05
4.2373622e-05
4.356569e-05
4.4746404e-05
4.5928027e-05
4.1029219e-05
4.1169032e-05
4.131509e-05
4.1555751e-05
4.1124852e-05
3.8018096e-05
3.4971084e-05
3.0862476e-05
2.9519652e-05
2.9144457e-05
2.94052e-05
2.9795796e-05
3.010839e-05
3.0638353e-05
3.1675099e-05
3.2783553e-05
3.3899285e-05
3.4904092e-05
3.5834204e-05
3.6770702e-05
3.7686859e-05
3.8862445e-05
4.0041e-05
4.1211151e-05
4.2388635e-05
4.3564597e-05
4.4731203e-05
4.5897424e-05
4.1100991e-05
4.1250225e-05
4.1401822e-05
4.1649823e-05
4.1151983e-05
3.8117805e-05
3.5124399e-05
3.1300631e-05
2.9899913e-05
2.9537163e-05
2.9766517e-05
3.0134493e-05
3.0451834e-05
3.0884358e-05
3.1903669e-05
3.2993223e-05
3.4079711e-05
3.5106729e-05
3.6021783e-05
3.6949265e-05
3.7836944e-05
3.8931158e-05
4.0092581e-05
4.1245246e-05
4.2406678e-05
4.3566429e-05
4.4718653e-05
4.5871866e-05
4.1173992e-05
4.1332523e-05
4.148951e-05
4.1744876e-05
4.1206111e-05
3.8253264e-05
3.5324241e-05
3.1742479e-05
3.028502e-05
2.9936571e-05
3.0118729e-05
3.047753e-05
3.0797608e-05
3.1130095e-05
3.2132589e-05
3.319277e-05
3.426023e-05
3.5304053e-05
3.6207973e-05
3.7123029e-05
3.800865e-05
3.9001071e-05
4.0146727e-05
4.1282264e-05
4.2427794e-05
4.3571521e-05
4.4709393e-05
4.5849454e-05
4.1248131e-05
4.1415846e-05
4.1578004e-05
4.1840613e-05
4.1288361e-05
3.8420777e-05
3.5557207e-05
3.2189848e-05
3.0678674e-05
3.0340133e-05
3.0475889e-05
3.0825558e-05
3.114789e-05
3.1376488e-05
3.236246e-05
3.3393417e-05
3.4441664e-05
3.5501459e-05
3.6393233e-05
3.7294414e-05
3.8176674e-05
3.907226e-05
4.0202721e-05
4.1321368e-05
4.2451157e-05
4.3579081e-05
4.4702673e-05
4.5829604e-05
4.1323323e-05
4.1500117e-05
4.166722e-05
4.1936874e-05
4.1391183e-05
3.8607954e-05
3.5809439e-05
3.2636907e-05
3.1087296e-05
3.072525e-05
3.0836712e-05
3.1175433e-05
3.1500561e-05
3.1627016e-05
3.2594065e-05
3.3595562e-05
3.46246e-05
3.569398e-05
3.6578612e-05
3.7466019e-05
3.8342246e-05
3.9192072e-05
4.0261199e-05
4.1363682e-05
4.2477468e-05
4.3589586e-05
4.4698828e-05
4.581258e-05
4.1399476e-05
4.1585252e-05
4.175769e-05
4.2037452e-05
4.1508785e-05
3.8808198e-05
3.6080572e-05
3.3087206e-05
3.1512442e-05
3.1109231e-05
3.1201873e-05
3.1532184e-05
3.1839274e-05
3.1977737e-05
3.2826753e-05
3.3799657e-05
3.4810302e-05
3.5853028e-05
3.6765528e-05
3.7637231e-05
3.8504633e-05
3.9349709e-05
4.0321761e-05
4.1408851e-05
4.2507131e-05
4.3603617e-05
4.4698518e-05
4.5799068e-05
4.1479634e-05
4.167581e-05
4.1855154e-05
4.213838e-05
4.1635935e-05
3.9017721e-05
3.6361262e-05
3.3546218e-05
3.1940834e-05
3.1499115e-05
3.1574202e-05
3.1893443e-05
3.2179254e-05
3.2326128e-05
3.306071e-05
3.400587e-05
3.49991e-05
3.6015455e-05
3.6955217e-05
3.7809604e-05
3.866684e-05
3.9505354e-05
4.038517e-05
4.1457293e-05
4.2540263e-05
4.3621369e-05
4.4701981e-05
4.5789335e-05
4.1572795e-05
4.1772134e-05
4.1953165e-05
4.2239652e-05
4.1770844e-05
3.9235001e-05
3.6649683e-05
3.4015437e-05
3.2375789e-05
3.1893824e-05
3.1959254e-05
3.2256441e-05
3.2517797e-05
3.2674646e-05
3.3294874e-05
3.4214688e-05
3.5191326e-05
3.6181705e-05
3.714794e-05
3.7984952e-05
3.8832136e-05
3.9661703e-05
4.0485757e-05
4.151015e-05
4.257819e-05
4.3643791e-05
4.4709938e-05
4.5783955e-05
4.166687e-05
4.1869252e-05
4.2051741e-05
4.2341333e-05
4.1912132e-05
3.9452487e-05
3.6964195e-05
3.4472134e-05
3.2827105e-05
3.2290127e-05
3.2346791e-05
3.2611442e-05
3.2856187e-05
3.3024341e-05
3.3521254e-05
3.4425994e-05
3.5386282e-05
3.6351224e-05
3.7343037e-05
3.8162753e-05
3.9000534e-05
3.9817862e-05
4.0637974e-05
4.1567682e-05
4.262186e-05
4.3672036e-05
4.4723594e-05
4.5784129e-05
4.176183e-05
4.1967143e-05
4.2150887e-05
4.2443417e-05
4.2059396e-05
3.9672772e-05
3.730325e-05
3.4926765e-05
3.3291361e-05
3.2687696e-05
3.2739159e-05
3.2959982e-05
3.3197815e-05
3.3375235e-05
3.3749519e-05
3.4639195e-05
3.5583083e-05
3.6523431e-05
3.7516688e-05
3.8341622e-05
3.9169003e-05
3.9973801e-05
4.0788237e-05
4.1629548e-05
4.2670354e-05
4.3705658e-05
4.4742803e-05
4.5789909e-05
4.1857635e-05
4.2065787e-05
4.2250613e-05
4.2545882e-05
4.2206375e-05
3.9914266e-05
3.7653526e-05
3.5397448e-05
3.3760996e-05
3.30874e-05
3.3134365e-05
3.3311777e-05
3.3542201e-05
3.3727268e-05
3.3979577e-05
3.4855031e-05
3.5774135e-05
3.6698589e-05
3.7674869e-05
3.8521744e-05
3.9337885e-05
4.0130561e-05
4.0938378e-05
4.1714372e-05
4.2722994e-05
4.3744272e-05
4.4766928e-05
4.5800584e-05
4.1954189e-05
4.2165089e-05
4.2350709e-05
4.2648474e-05
4.2365817e-05
4.0171397e-05
3.8026078e-05
3.5875275e-05
3.4231172e-05
3.3490156e-05
3.3519143e-05
3.3665163e-05
3.3886459e-05
3.4078982e-05
3.4211691e-05
3.5073767e-05
3.5968128e-05
3.6877411e-05
3.7832342e-05
3.870465e-05
3.9506179e-05
4.0289356e-05
4.1086401e-05
4.1858893e-05
4.2779308e-05
4.3788099e-05
4.4796207e-05
4.5815913e-05
4.2051423e-05
4.2264995e-05
4.245116e-05
4.2751238e-05
4.2535871e-05
4.0436552e-05
3.8406257e-05
3.6355502e-05
3.4701477e-05
3.389709e-05
3.3899117e-05
3.4021061e-05
3.4234016e-05
3.4424227e-05
3.4463816e-05
3.5294606e-05
3.6164235e-05
3.7058738e-05
3.7990815e-05
3.8889081e-05
3.9674283e-05
4.0447927e-05
4.1232534e-05
4.1999985e-05
4.2838076e-05
4.3835233e-05
4.4829342e-05
4.5835487e-05
4.2149241e-05
4.2365418e-05
4.2551844e-05
4.2854429e-05
4.2712917e-05
4.0708904e-05
3.8788232e-05
3.6837062e-05
3.5176029e-05
3.4301879e-05
3.4283733e-05
3.4381127e-05
3.4588527e-05
3.4768594e-05
3.4819572e-05
3.551816e-05
3.6363893e-05
3.7243378e-05
3.8152327e-05
3.9075097e-05
3.9843419e-05
4.0607473e-05
4.1379265e-05
4.2141521e-05
4.2900558e-05
4.3886324e-05
4.4866395e-05
4.5859209e-05
4.2247565e-05
4.2466276e-05
4.2654681e-05
4.2960716e-05
4.2891861e-05
4.0981705e-05
3.9168033e-05
3.7315022e-05
3.5661026e-05
3.4689735e-05
3.4672244e-05
3.4741531e-05
3.4943168e-05
3.5110277e-05
3.5168137e-05
3.5744358e-05
3.6567039e-05
3.7432185e-05
3.8319123e-05
3.9227544e-05
4.0016887e-05
4.0769824e-05
4.1529718e-05
4.2283463e-05
4.3028176e-05
4.3942223e-05
4.4909321e-05
4.5888651e-05
4.2353026e-05
4.2572843e-05
4.2761504e-05
4.3067164e-05
4.3069276e-05
4.1252988e-05
3.9544177e-05
3.7794825e-05
3.6145889e-05
3.508154e-05
3.506251e-05
3.510291e-05
3.5291953e-05
3.5448982e-05
3.5513486e-05
3.5967818e-05
3.6773759e-05
3.7625229e-05
3.8490859e-05
3.9384192e-05
4.0195133e-05
4.0936001e-05
4.1683052e-05
4.2426727e-05
4.3163787e-05
4.4002701e-05
4.495748e-05
4.5923816e-05
4.2463813e-05
4.2680289e-05
4.2868804e-05
4.317408e-05
4.3241984e-05
4.1519586e-05
3.9910856e-05
3.827864e-05
3.6617647e-05
3.5475893e-05
3.5451536e-05
3.5466442e-05
3.5633009e-05
3.5783415e-05
3.5858578e-05
3.6189986e-05
3.6983797e-05
3.78219e-05
3.8666572e-05
3.9545311e-05
4.0376634e-05
4.1105325e-05
4.1838964e-05
4.2572292e-05
4.3301019e-05
4.4068149e-05
4.5010729e-05
4.5964412e-05
4.257528e-05
4.2788435e-05
4.2976708e-05
4.3281604e-05
4.341025e-05
4.1780878e-05
4.0282037e-05
3.8748841e-05
3.7099325e-05
3.5872225e-05
3.5841976e-05
3.5832246e-05
3.5977225e-05
3.6120334e-05
3.6205688e-05
3.6414864e-05
3.7196798e-05
3.8021375e-05
3.8845551e-05
3.9710206e-05
4.0560431e-05
4.1277259e-05
4.1997488e-05
4.2720923e-05
4.3440387e-05
4.415377e-05
4.5069151e-05
4.6010355e-05
4.268744e-05
4.2897283e-05
4.3085203e-05
4.3389677e-05
4.3574608e-05
4.2039043e-05
4.065668e-05
3.9210228e-05
3.758534e-05
3.6269043e-05
3.6234483e-05
3.6191165e-05
3.6323057e-05
3.645768e-05
3.6552559e-05
3.6642441e-05
3.7413448e-05
3.8217743e-05
3.902804e-05
3.9878902e-05
4.0736347e-05
4.1451934e-05
4.2158644e-05
4.2873167e-05
4.3580622e-05
4.4288765e-05
4.5132735e-05
4.6062015e-05
4.2800335e-05
4.3006896e-05
4.319441e-05
4.3498453e-05
4.3732678e-05
4.2301978e-05
4.1013525e-05
3.9680361e-05
3.8068167e-05
3.6666539e-05
3.6629976e-05
3.654332e-05
3.667101e-05
3.6796468e-05
3.6896226e-05
3.6872972e-05
3.763322e-05
3.8415812e-05
3.921328e-05
4.0050938e-05
4.0888735e-05
4.1628564e-05
4.2320147e-05
4.3025909e-05
4.3720782e-05
4.442302e-05
4.5200189e-05
4.6118094e-05
4.2913922e-05
4.3117217e-05
4.3304206e-05
4.360775e-05
4.3891872e-05
4.2560387e-05
4.1375047e-05
4.0152896e-05
3.8549464e-05
3.7065625e-05
3.7025284e-05
3.6898489e-05
3.7022293e-05
3.7141816e-05
3.723516e-05
3.721202e-05
3.78562e-05
3.8617971e-05
3.9402644e-05
4.0222598e-05
4.1044866e-05
4.1807337e-05
4.2483088e-05
4.3179875e-05
4.3861887e-05
4.4558134e-05
4.5271544e-05
4.6178209e-05
4.3028145e-05
4.3228175e-05
4.3415181e-05
4.3717376e-05
4.405038e-05
4.2816598e-05
4.1734087e-05
4.0624787e-05
3.9024927e-05
3.7468478e-05
3.7404758e-05
3.7256584e-05
3.7373703e-05
3.7487393e-05
3.7571033e-05
3.7554095e-05
3.8082185e-05
3.8823954e-05
3.9596622e-05
4.0397051e-05
4.120577e-05
4.1988534e-05
4.2649059e-05
4.3336701e-05
4.4005888e-05
4.4695707e-05
4.5355929e-05
4.624324e-05
4.3143009e-05
4.333979e-05
4.3527317e-05
4.3829733e-05
4.417741e-05
4.3070471e-05
4.2087914e-05
4.10953e-05
3.9499738e-05
3.7871299e-05
3.7786785e-05
3.7635844e-05
3.7725844e-05
3.782913e-05
3.790458e-05
3.789185e-05
3.8310378e-05
3.9033646e-05
3.9795021e-05
4.0576168e-05
4.1371996e-05
4.217068e-05
4.2819604e-05
4.3495601e-05
4.4154666e-05
4.4833197e-05
4.548827e-05
4.6313108e-05
4.3261823e-05
4.3457161e-05
4.3645924e-05
4.3943048e-05
4.4288755e-05
4.331974e-05
4.243471e-05
4.1556544e-05
3.9975108e-05
3.8253718e-05
3.8169615e-05
3.8013175e-05
3.8079033e-05
3.816195e-05
3.8237413e-05
3.8228239e-05
3.8533537e-05
3.9246847e-05
3.9997062e-05
4.075931e-05
4.1542849e-05
4.2353866e-05
4.2994032e-05
4.3656764e-05
4.4307026e-05
4.4973289e-05
4.5622504e-05
4.6387833e-05
4.3385746e-05
4.3578109e-05
4.3765079e-05
4.4056781e-05
4.440053e-05
4.3564339e-05
4.2776466e-05
4.2017934e-05
4.0439901e-05
3.8638955e-05
3.8553046e-05
3.838989e-05
3.8433015e-05
3.8495881e-05
3.8571096e-05
3.8564957e-05
3.8760041e-05
3.94635e-05
4.020231e-05
4.0945984e-05
4.171839e-05
4.2511216e-05
4.3172267e-05
4.3820228e-05
4.4462101e-05
4.5115963e-05
4.5759367e-05
4.6467218e-05
4.3510246e-05
4.3699561e-05
4.3884846e-05
4.4171199e-05
4.4513061e-05
4.380395e-05
4.3113662e-05
4.247994e-05
4.0887794e-05
3.9025865e-05
3.8935329e-05
3.8767049e-05
3.8779155e-05
3.8830801e-05
3.8898621e-05
3.8900894e-05
3.8989493e-05
3.9683825e-05
4.0410287e-05
4.1136804e-05
4.189865e-05
4.2673557e-05
4.3354965e-05
4.3987534e-05
4.4620947e-05
4.5262208e-05
4.5899902e-05
4.655154e-05
4.3635378e-05
4.3821612e-05
4.4005385e-05
4.4286628e-05
4.4626715e-05
4.4037391e-05
4.3453011e-05
4.2905332e-05
4.1340669e-05
3.9412933e-05
3.9317243e-05
3.9145724e-05
3.9119244e-05
3.9166925e-05
3.922565e-05
3.923218e-05
3.9221742e-05
3.9907582e-05
4.0615016e-05
4.1331253e-05
4.2082535e-05
4.2839659e-05
4.3541012e-05
4.4158249e-05
4.4783501e-05
4.5412433e-05
4.6043162e-05
4.6666043e-05
4.3761158e-05
4.3944297e-05
4.4126729e-05
4.4403069e-05
4.4741401e-05
4.4269913e-05
4.3772963e-05
4.3338146e-05
4.1791074e-05
3.9823186e-05
3.9700155e-05
3.9521652e-05
3.9461132e-05
3.9504232e-05
3.9555898e-05
3.9562308e-05
3.9464133e-05
4.0134459e-05
4.0822813e-05
4.1528623e-05
4.2269236e-05
4.3008497e-05
4.372908e-05
4.4331033e-05
4.494834e-05
4.5565022e-05
4.6187555e-05
4.6802098e-05
4.3887542e-05
4.4067567e-05
4.4248787e-05
4.4520344e-05
4.4856625e-05
4.449374e-05
4.4080747e-05
4.3774178e-05
4.2231025e-05
4.028321e-05
4.0085101e-05
3.9887008e-05
3.9806473e-05
3.9843309e-05
3.9890084e-05
3.9890216e-05
3.9798888e-05
4.0364611e-05
4.1034681e-05
4.1730146e-05
4.2454745e-05
4.3180861e-05
4.3919282e-05
4.4505966e-05
4.5115465e-05
4.5719709e-05
4.6333965e-05
4.6939746e-05
4.4014492e-05
4.4191356e-05
4.437145e-05
4.4638228e-05
4.4971784e-05
4.470749e-05
4.4386224e-05
4.4200445e-05
4.2661576e-05
4.0732992e-05
4.0465313e-05
4.0253779e-05
4.0152755e-05
4.0183358e-05
4.0218608e-05
4.0214483e-05
4.0125582e-05
4.0597391e-05
4.1250146e-05
4.1936115e-05
4.2642948e-05
4.3357904e-05
4.4108885e-05
4.4684041e-05
4.5285984e-05
4.5877844e-05
4.6484103e-05
4.7081023e-05
4.4142022e-05
4.431568e-05
4.4494435e-05
4.4756256e-05
4.508724e-05
4.4917147e-05
4.4688355e-05
4.4604757e-05
4.3081285e-05
4.1178407e-05
4.0829329e-05
4.0620582e-05
4.0497657e-05
4.0523921e-05
4.054033e-05
4.0536844e-05
4.0450069e-05
4.0824459e-05
4.1468928e-05
4.214544e-05
4.2834741e-05
4.3539939e-05
4.4274718e-05
4.4866168e-05
4.5458823e-05
4.6038789e-05
4.6637655e-05
4.722592e-05
4.4271631e-05
4.4439716e-05
4.4616365e-05
4.4874867e-05
4.5203607e-05
4.5122333e-05
4.4987776e-05
4.5006774e-05
4.3499088e-05
4.1612075e-05
4.1195107e-05
4.0986535e-05
4.0842473e-05
4.0864346e-05
4.0862132e-05
4.0859462e-05
4.0774779e-05
4.105512e-05
4.1691365e-05
4.2358554e-05
4.3030438e-05
4.372646e-05
4.4444285e-05
4.505286e-05
4.5633034e-05
4.6203254e-05
4.6794674e-05
4.7372967e-05
4.4402888e-05
4.4564248e-05
4.4738965e-05
4.4994375e-05
4.5321046e-05
4.5323415e-05
4.5285283e-05
4.54082e-05
4.3911826e-05
4.2034063e-05
4.156146e-05
4.1350082e-05
4.118892e-05
4.1193414e-05
4.1184692e-05
4.1180418e-05
4.1097855e-05
4.1289085e-05
4.1917427e-05
4.2574888e-05
4.3230118e-05
4.3917361e-05
4.4618295e-05
4.5243992e-05
4.5809374e-05
4.6372272e-05
4.6952721e-05
4.752293e-05
4.4534885e-05
4.4689648e-05
4.4862376e-05
4.5114992e-05
4.5439845e-05
4.552094e-05
4.558179e-05
4.5811737e-05
4.4291231e-05
4.2454974e-05
4.1927049e-05
4.1712512e-05
4.1536567e-05
4.1521256e-05
4.1507578e-05
4.150223e-05
4.1414781e-05
4.1526257e-05
4.21472e-05
4.2787188e-05
4.3433648e-05
4.4111996e-05
4.4796269e-05
4.5438801e-05
4.5989522e-05
4.6545417e-05
4.7113915e-05
4.7676789e-05
4.4667706e-05
4.4816004e-05
4.4986717e-05
4.523686e-05
4.556013e-05
4.5715912e-05
4.5879658e-05
4.6169427e-05
4.4674002e-05
4.286686e-05
4.2291769e-05
4.2075531e-05
4.1874829e-05
4.1850286e-05
4.1830281e-05
4.1825589e-05
4.1731302e-05
4.1766933e-05
4.238056e-05
4.3003056e-05
4.3640868e-05
4.4310295e-05
4.497787e-05
4.5636775e-05
4.6172923e-05
4.6722094e-05
4.7278632e-05
4.7834376e-05
4.4801401e-05
4.4943351e-05
4.511202e-05
4.5359934e-05
4.5681804e-05
4.5909408e-05
4.6155215e-05
4.6512733e-05
4.5054895e-05
4.3270686e-05
4.2656083e-05
4.2439433e-05
4.22079e-05
4.2180728e-05
4.2152893e-05
4.2148802e-05
4.2047515e-05
4.2010729e-05
4.2617379e-05
4.3222371e-05
4.3852052e-05
4.4507823e-05
4.5163316e-05
4.5837593e-05
4.6359408e-05
4.6902297e-05
4.7446991e-05
4.7995958e-05
4.4935999e-05
4.50717e-05
4.5238279e-05
4.5484118e-05
4.5804492e-05
4.609273e-05
4.6415058e-05
4.6856552e-05
4.5430981e-05
4.3664845e-05
4.3021866e-05
4.2790178e-05
4.2542291e-05
4.2509993e-05
4.247725e-05
4.2459625e-05
4.2364199e-05
4.2257443e-05
4.2853357e-05
4.3444805e-05
4.4066715e-05
4.4706029e-05
4.5352603e-05
4.6031752e-05
4.6548833e-05
4.708556e-05
4.7618794e-05
4.8161704e-05
4.5071502e-05
4.5201033e-05
4.5365445e-05
4.5609425e-05
4.5929042e-05
4.6268354e-05
4.6674757e-05
4.7201496e-05
4.5802933e-05
4.405153e-05
4.3389047e-05
4.3135388e-05
4.2878574e-05
4.2840085e-05
4.280395e-05
4.2770091e-05
4.2682459e-05
4.2522215e-05
4.3087173e-05
4.3670519e-05
4.4284334e-05
4.4907127e-05
4.5545644e-05
4.6210996e-05
4.6741419e-05
4.7270763e-05
4.7792804e-05
4.8330094e-05
4.5208125e-05
4.533262e-05
4.5496842e-05
4.5739067e-05
4.6054965e-05
4.6442391e-05
4.6934833e-05
4.7548532e-05
4.6167716e-05
4.443989e-05
4.3734164e-05
4.3482989e-05
4.3217286e-05
4.3172185e-05
4.3126327e-05
4.3083782e-05
4.2998403e-05
4.2842482e-05
4.3324156e-05
4.3900137e-05
4.4505668e-05
4.5111788e-05
4.5742611e-05
4.6391704e-05
4.6937723e-05
4.7458392e-05
4.796926e-05
4.85009e-05
4.5348896e-05
4.5469876e-05
4.5632019e-05
4.5869821e-05
4.6182018e-05
4.6615094e-05
4.7195738e-05
4.7898438e-05
4.6534408e-05
4.4819268e-05
4.40825e-05
4.3831439e-05
4.3562992e-05
4.3506161e-05
4.3442644e-05
4.3397656e-05
4.3312017e-05
4.3155749e-05
4.3563722e-05
4.4133029e-05
4.4725643e-05
4.5320049e-05
4.5943166e-05
4.6576054e-05
4.7138171e-05
4.7644837e-05
4.8149247e-05
4.8674382e-05
4.5490621e-05
4.5608113e-05
4.5768263e-05
4.60018e-05
4.6310362e-05
4.6786994e-05
4.74584e-05
4.8252236e-05
4.6894168e-05
4.5187996e-05
4.4432424e-05
4.4179407e-05
4.3909059e-05
4.3835703e-05
4.3759982e-05
4.3711218e-05
4.3626819e-05
4.3464861e-05
4.3806363e-05
4.436923e-05
4.494515e-05
4.5531803e-05
4.6147117e-05
4.6763855e-05
4.7342022e-05
4.7834666e-05
4.8333213e-05
4.8847523e-05
4.5633351e-05
4.5747394e-05
4.5905655e-05
4.613513e-05
4.6440178e-05
4.6958931e-05
4.7724225e-05
4.8607366e-05
4.7223465e-05
4.5557622e-05
4.4782447e-05
4.4526857e-05
4.42569e-05
4.4155735e-05
4.4079209e-05
4.4024813e-05
4.3942253e-05
4.3774764e-05
4.4052277e-05
4.4608825e-05
4.5168035e-05
4.5747089e-05
4.6353603e-05
4.6955126e-05
4.7549163e-05
4.8027928e-05
4.8521091e-05
4.9023995e-05
4.5777151e-05
4.5887798e-05
4.6044287e-05
4.6269932e-05
4.6571618e-05
4.7132032e-05
4.799169e-05
4.889906e-05
4.7557571e-05
4.5921136e-05
4.5132646e-05
4.4875633e-05
4.4597606e-05
4.4477741e-05
4.4398649e-05
4.4340223e-05
4.4251351e-05
4.4085317e-05
4.4301038e-05
4.4849356e-05
4.5393873e-05
4.5966028e-05
4.6556582e-05
4.7149982e-05
4.7758989e-05
4.8224118e-05
4.8712285e-05
4.9203791e-05
4.5922069e-05
4.6029368e-05
4.6184184e-05
4.6406164e-05
4.6704547e-05
4.7302566e-05
4.8217516e-05
4.9190802e-05
4.7889624e-05
4.6279502e-05
4.5482751e-05
4.5225932e-05
4.4928757e-05
4.480156e-05
4.4718209e-05
4.4657034e-05
4.4559416e-05
4.439647e-05
4.455315e-05
4.5085322e-05
4.5622863e-05
4.6187944e-05
4.6762636e-05
4.734819e-05
4.7963968e-05
4.8422882e-05
4.8906036e-05
4.9386296e-05
4.6068109e-05
4.6172092e-05
4.6325279e-05
4.6543628e-05
4.6839198e-05
4.7460009e-05
4.8442844e-05
4.9484653e-05
4.8219159e-05
4.6631484e-05
4.5835141e-05
4.5559468e-05
4.5261762e-05
4.5125491e-05
4.5039036e-05
4.4969248e-05
4.4868949e-05
4.4708006e-05
4.480833e-05
4.5324366e-05
4.5854926e-05
4.6412875e-05
4.6971509e-05
4.7550357e-05
4.8150176e-05
4.8625277e-05
4.9101753e-05
4.9571074e-05
4.6215263e-05
4.6315985e-05
4.6467964e-05
4.6683823e-05
4.6976287e-05
4.7616512e-05
4.866906e-05
4.9781343e-05
4.8546337e-05
4.698242e-05
4.6181427e-05
4.5889962e-05
4.5595597e-05
4.5449786e-05
4.5361831e-05
4.5275329e-05
4.517986e-05
4.5019709e-05
4.5062424e-05
4.5566153e-05
4.6090022e-05
4.6636882e-05
4.7183617e-05
4.7755943e-05
4.8339947e-05
4.8831519e-05
4.9299015e-05
4.9758989e-05
4.6364785e-05
4.6462505e-05
4.6612772e-05
4.682573e-05
4.7114634e-05
4.7773072e-05
4.8897237e-05
5.0082087e-05
4.8869599e-05
4.7335023e-05
4.6510271e-05
4.6222782e-05
4.5929147e-05
4.5775835e-05
4.5680286e-05
4.5583276e-05
4.5491354e-05
4.5333974e-05
4.5312846e-05
4.5810925e-05
4.6328241e-05
4.6858864e-05
4.7398858e-05
4.7964446e-05
4.853263e-05
4.9041276e-05
4.9495389e-05
4.9950217e-05
4.651561e-05
4.6610219e-05
4.6758797e-05
4.6968967e-05
4.7254425e-05
4.7930562e-05
4.9128519e-05
5.0388887e-05
4.9196538e-05
4.7661682e-05