/*--------------------------------*- C++ -*----------------------------------*\
  =========                 |
  \\      /  F ield         | OpenFOAM: The Open Source CFD Toolbox
   \\    /   O peration     | Website:  https://openfoam.org
    \\  /    A nd           | Version:  7
     \\/     M anipulation  |
\*---------------------------------------------------------------------------*/
FoamFile
{
    version     2.0;
    format      ascii;
    class       volScalarField;
    location    "50000";
    object      rho;
}
// * * * * * * * * * * * * * * * * * * * * * * * * * * * * * * * * * * * * * //

dimensions      [1 -3 0 0 0 0 0];

internalField   nonuniform List<scalar> 
113400
(
0.23791331
0.23791332
0.23791332
0.23791332
0.31349948
0.33524389
0.36467407
0.40343514
0.4491015
0.49937751
0.47533561
0.44599517
0.40566679
0.25178582
0.83703372
0.80321533
0.75885203
0.70238536
0.65163326
0.60000146
0.55078857
0.49840085
0.45337024
0.45306443
0.44909509
0.49237872
0.67323963
0.82662373
0.25364202
0.26697159
0.28725735
0.30721844
0.33587837
0.36377703
0.3901705
0.40758041
0.39314466
0.39441046
0.39711605
0.32585972
0.42989191
0.70305084
0.76883218
0.72848767
0.68345045
0.62418686
0.57120282
0.52323954
0.47304672
0.42811959
0.38554964
0.35421193
0.32959355
0.30850394
0.28735374
0.26700089
0.25171382
0.2700777
0.2972994
0.32503339
0.34984413
0.3722965
0.36704057
0.37217048
0.36952585
0.35630343
0.33473858
0.27948663
0.603553
0.74399552
0.7271423
0.70494514
0.63718991
0.59655939
0.54151144
0.49365592
0.44626413
0.40386054
0.36745441
0.33616944
0.31034992
0.288912
0.2700016
0.25397051
0.25031213
0.27004895
0.29746298
0.32722996
0.34831798
0.35918407
0.35516433
0.35496043
0.34954319
0.3389897
0.27720174
0.49568634
0.7176388
0.74508898
0.70647683
0.66915786
0.6063796
0.56003456
0.50981419
0.46623139
0.42379081
0.38603969
0.35483411
0.32724057
0.30353272
0.28372521
0.26682885
0.25244693
0.24821582
0.26684722
0.29243365
0.3126009
0.32941411
0.33913709
0.33741456
0.33938638
0.33072961
0.29600167
0.35109488
0.58301545
0.73450387
0.71972951
0.69056937
0.63472575
0.58600386
0.53836344
0.49074433
0.4500018
0.41260906
0.37770315
0.34810992
0.32328514
0.30197474
0.28375271
0.26806128
0.25445524
0.24540311
0.260463
0.28280947
0.28922242
0.31365017
0.31338615
0.32578446
0.31910681
0.3042902
0.26052751
0.46186307
0.65847062
0.73777962
0.70673266
0.67844069
0.61272102
0.56591403
0.51859926
0.4744014
0.43679007
0.40268091
0.37153632
0.34401133
0.32041266
0.30013124
0.28273514
0.26759555
0.25441388
0.24322311
0.25204902
0.26499427
0.28492603
0.29125032
0.30804318
0.30605369
0.3004265
0.28337046
0.33093022
0.50934533
0.71076539
0.71866943
0.69133995
0.65478528
0.59291939
0.55054385
0.50195068
0.46122061
0.42588034
0.39455016
0.36711312
0.34162344
0.31927279
0.2998757
0.28294882
0.26812256
0.25509575
0.24125225
0.24809221
0.25387452
0.27001055
0.28625519
0.28940826
0.29269408
0.29024914
0.25537898
0.42191864
0.55741537
0.702774
0.70369506
0.67582719
0.62870489
0.57487434
0.53703931
0.48975936
0.45003651
0.41658672
0.38789391
0.36178937
0.33918554
0.31823889
0.29957592
0.28316654
0.26869591
0.25589019
0.23881861
0.24109909
0.25127065
0.26327086
0.27214601
0.28083941
0.27976442
0.26537672
0.30462726
0.47436996
0.62292975
0.7001581
0.6899402
0.66049959
0.61128702
0.55800619
0.52294863
0.47893244
0.44155891
0.40899354
0.38151178
0.35733299
0.33563986
0.3165907
0.29916764
0.28321597
0.26904294
0.25644705
0.23841701
0.23948967
0.24303929
0.25578944
0.26607103
0.26710657
0.26937479
0.2520293
0.37024138
0.48809395
0.66792732
0.69791851
0.67463697
0.64730188
0.59477599
0.54300061
0.51065396
0.46968523
0.43432419
0.40332729
0.3765363
0.35371662
0.33296396
0.31447804
0.29805321
0.28329045
0.26937998
0.25694308
0.23777586
0.23785002
0.24321749
0.25109894
0.25524505
0.26197355
0.25368527
0.27390983
0.41622056
0.51404808
0.65828296
0.68264397
0.65802583
0.62779177
0.57877885
0.53215981
0.49943606
0.46140917
0.42791121
0.39844636
0.3725779
0.35016438
0.33079215
0.31279334
0.29674211
0.28235342
0.26942373
0.2573983
0.23768343
0.23805499
0.24019044
0.24508357
0.25273539
0.24881522
0.24699858
0.32656867
0.4468019
0.56606334
0.65712209
0.6673489
0.6406139
0.61257124
0.5629644
0.52120447
0.48930947
0.45358226
0.42194275
0.39396448
0.36899971
0.34710616
0.32826578
0.3112965
0.29558085
0.28145422
0.26870842
0.2571823
0.23755738
0.2375454
0.23880259
0.24395414
0.24299044
0.24679375
0.23961727
0.36154018
0.45788332
0.59929725
0.66144939
0.65274384
0.62384122
0.597674
0.54787994
0.51057932
0.4805761
0.44648505
0.41661581
0.38992134
0.36589276
0.34459483
0.32609888
0.30966518
0.2946354
0.28073053
0.26815746
0.25675907
0.23744723
0.23743806
0.23855374
0.23882874
0.24219802
0.2417064
0.28295907
0.38263717
0.47194183
0.61925601
0.65921827
0.63825929
0.60810628
0.58344854
0.53445581
0.50052362
0.47236376
0.44019523
0.41184808
0.38624295
0.36318033
0.34242989
0.32426655
0.30816926
0.29359049
0.28016279
0.26773775
0.2564548
0.23731742
0.23728018
0.23723935
0.23832165
0.24008462
0.23616297
0.3093802
0.40266542
0.48999556
0.61312535
0.6441513
0.62201989
0.59929853
0.5700419
0.52516481
0.49118604
0.46479163
0.43548428
0.40761806
0.3830309
0.36084353
0.34059204
0.32274607
0.30696022
0.29259637
0.27953441
0.26746377
0.25627486
0.23716563
0.23709273
0.23699148
0.23761267
0.23717472
0.23528853
0.33172109
0.41603107
0.51743401
0.60966119
0.62871101
0.6048599
0.58939249
0.55683102
0.51605091
0.48200534
0.45743277
0.43098216
0.40362174
0.38004239
0.35853659
0.33892945
0.32139507
0.30591135
0.29176366
0.27885501
0.26706814
0.25617561
0.23698613
0.23688377
0.23668657
0.23659723
0.23551802
0.25980153
0.34789716
0.4296922
0.54239624
0.60763875
0.61360284
0.58794873
0.57888149
0.5438543
0.5071358
0.47302668
0.45029357
0.42662854
0.3997745
0.37718727
0.35634253
0.33736948
0.32014263
0.30495855
0.29102609
0.27827705
0.26660389
0.2559656
0.23678698
0.23664181
0.23633576
0.2357224
0.23491212
0.27370986
0.35924239
0.44218643
0.56224838
0.6068865
0.5994694
0.57841051
0.56812213
0.53171804
0.49878146
0.46627924
0.44363549
0.42261144
0.39651545
0.37459002
0.35437277
0.33588273
0.31905446
0.30414914
0.29041904
0.27781939
0.26625399
0.25578939
0.23657195
0.23637193
0.23597639
0.23527782
0.23432924
0.28199781
0.36432516
0.44730642
0.56794492
0.60507381
0.58487376
0.56862805
0.5576485
0.52383573
0.49131865
0.46026923
0.43771922
0.4180017
0.39392234
0.37239092
0.35274632
0.33464463
0.31823377
0.30356915
0.29001402
0.27754194
0.26606665
0.2557663
0.23633064
0.23605706
0.23561631
0.23482498
0.23376426
0.28874282
0.36958268
0.45273141
0.55889535
0.59165199
0.57047132
0.55879641
0.54706618
0.51644979
0.48436787
0.45462723
0.43228445
0.41339112
0.39162065
0.37046467
0.35135151
0.33361151
0.31752402
0.30315441
0.28975634
0.27739877
0.26601869
0.25586261
0.2360688
0.23573226
0.23524504
0.23436488
0.23321237
0.29473329
0.37414123
0.46106278
0.5506613
0.57632015
0.56149739
0.54874203
0.53638006
0.50922676
0.47761408
0.44913479
0.42705184
0.40900038
0.3894388
0.36865016
0.35005168
0.33266517
0.31685128
0.30281127
0.28956584
0.27731785
0.26611656
0.25602059
0.2357958
0.2353959
0.23486172
0.23389489
0.23266677
0.29946685
0.37597712
0.46733974
0.54221513
0.56085738
0.55205785
0.53855629
0.52571376
0.5021887
0.47103941
0.44421962
0.42199702
0.40478918
0.38733481
0.36690801
0.34881553
0.33177645
0.3162379
0.30244346
0.28942071
0.27727931
0.26625583
0.25622033
0.23551247
0.23504927
0.23446659
0.23341455
0.23212801
0.30340589
0.37666029
0.47033041
0.53291078
0.5481237
0.54225782
0.52833323
0.51680452
0.49527485
0.46457392
0.43966532
0.41771348
0.40069261
0.38442679
0.36518293
0.34758643
0.33089985
0.31563927
0.30205842
0.28928976
0.27725622
0.26641035
0.25643781
0.23521893
0.23469265
0.23405847
0.23290984
0.23157244
0.30682426
0.37679598
0.47061177
0.52231509
0.53897475
0.53236382
0.51807697
0.50887416
0.4884424
0.45928165
0.43517951
0.41351712
0.39672246
0.38094601
0.36348149
0.34636197
0.33003046
0.31504082
0.30167888
0.28908348
0.27723697
0.26656568
0.2566591
0.2349146
0.23431834
0.2336062
0.23239248
0.23507353
0.30922677
0.37663083
0.46876285
0.51150754
0.52952575
0.52229851
0.50770958
0.5007972
0.48165397
0.45444065
0.43075075
0.40940566
0.39286212
0.37760492
0.36180769
0.34515242
0.32917013
0.31444291
0.30130081
0.28886504
0.27721213
0.26671724
0.25687891
0.23454956
0.23388741
0.23313604
0.23187422
0.2387745
0.31039961
0.37629654
0.46421614
0.50568087
0.51989448
0.51224964
0.49739916
0.49274691
0.4749242
0.44963915
0.42636392
0.40535588
0.38907093
0.37433996
0.36014102
0.34394896
0.32831814
0.3138502
0.30092853
0.28865457
0.27714754
0.26686997
0.25709975
0.23416447
0.23344751
0.23266044
0.23135552
0.24099
0.3103424
0.37452821
0.45769758
0.49872388
0.5100981
0.5021157
0.48945171
0.48471887
0.46830818
0.44491349
0.42204071
0.40137508
0.38533178
0.371193
0.35727061
0.34275096
0.32745479
0.31324751
0.30055076
0.28844011
0.27712811
0.26699185
0.25731694
0.23377081
0.2329999
0.23217951
0.23083273
0.24242159
0.30974643
0.37073252
0.45401575
0.49073005
0.50018908
0.49188387
0.48198557
0.47665771
0.46182351
0.44028381
0.41779904
0.39771993
0.38170245
0.36817112
0.35456252
0.34156918
0.32659311
0.31263295
0.3001591
0.28821186
0.27709224
0.26705694
0.25751978
0.23336966
0.23254568
0.23169419
0.23030773
0.24318015
0.30787204
0.36653789
0.44678491
0.48193491
0.49012474
0.48160718
0.47449589
0.46859998
0.45597009
0.43572127
0.41360043
0.39467357
0.37813978
0.36523328
0.35193387
0.34038253
0.32572448
0.31201042
0.29975604
0.28797339
0.27704279
0.2671121
0.25767111
0.23296166
0.23208552
0.23120439
0.22977962
0.24374028
0.30506115
0.36408118
0.43847536
0.47297692
0.47991097
0.4727799
0.46699897
0.46052822
0.45110813
0.4311736
0.40941885
0.39162077
0.37470842
0.36230379
0.34937047
0.33828898
0.32483072
0.31134773
0.2993198
0.28770815
0.27696539
0.26714491
0.25778529
0.2325469
0.23161943
0.23070965
0.2292465
0.24365552
0.30280448
0.36068387
0.42999538
0.46383228
0.46953461
0.46539931
0.45943952
0.45247065
0.44626102
0.42663097
0.40606426
0.38857708
0.37162573
0.35941723
0.34689729
0.33591016
0.32393065
0.31065813
0.29885597
0.28741681
0.27685764
0.2671502
0.25787603
0.23212595
0.23114789
0.23021079
0.22871007
0.24307068
0.30048485
0.35662044
0.42131519
0.45443774
0.45906696
0.45792879
0.45181051
0.44437776
0.44141077
0.42208157
0.40270163
0.38552876
0.36856602
0.35656628
0.34447785
0.33359683
0.32302191
0.30995043
0.2983739
0.28710783
0.27672782
0.26713526
0.25794854
0.23169927
0.23067131
0.22970826
0.22817217
0.2424039
0.29777769
0.35216772
0.41257603
0.44467935
0.45088134
0.45040252
0.44418536
0.43631323
0.43645227
0.4175101
0.39932484
0.38246627
0.36562376
0.35373493
0.34207434
0.33133174
0.3215036
0.30921758
0.29786113
0.28677419
0.27657153
0.26709731
0.25800093
0.23126738
0.23019016
0.22920133
0.22763879
0.24145653
0.29481823
0.34733999
0.40370296
0.43455513
0.44340174
0.44280956
0.43645659
0.42985039
0.42947662
0.41292808
0.39592849
0.37936889
0.36331506
0.35090018
0.3396956
0.32912497
0.31951184
0.3084652
0.29732428
0.28641273
0.27638374
0.267031
0.25802791
0.23081637
0.2296895
0.22867854
0.22710393
0.24033623
0.29168412
0.34231635
0.39459153
0.42560961
0.43582338
0.43510325
0.42867927
0.42349222
0.42263224
0.40833106
0.39251022
0.37623136
0.36096752
0.34804504
0.33732132
0.32693607
0.3175606
0.30768383
0.29675762
0.28602274
0.27616293
0.26693456
0.25802764
0.23030687
0.22916867
0.22815303
0.22656744
0.23908233
0.28840782
0.33713051
0.38522637
0.4179556
0.42817427
0.42723168
0.42091126
0.41729574
0.41586488
0.40384678
0.38906076
0.37304794
0.358576
0.34516958
0.33492815
0.32472166
0.31561665
0.30646791
0.29614905
0.28559069
0.27589988
0.26680163
0.25799545
0.22979246
0.22864367
0.22762455
0.22602881
0.23772469
0.28513035
0.33144532
0.37751499
0.41004859
0.42052373
0.4193553
0.41396324
0.41115741
0.40914978
0.40013925
0.38558111
0.36982952
0.35614861
0.34228262
0.33252464
0.32248252
0.31369227
0.30467927
0.29549722
0.28510836
0.27558407
0.26662206
0.25792205
0.22927318
0.22811449
0.22709294
0.22548791
0.23627455
0.28180202
0.32529513
0.37088532
0.40196838
0.4128766
0.41142761
0.40792006
0.40500973
0.40248253
0.39640974
0.3820805
0.36659077
0.35369336
0.33977047
0.33012968
0.32025976
0.3117883
0.30295787
0.29480549
0.28458598
0.27522054
0.2663979
0.25780766
0.22874919
0.22758118
0.22655803
0.22494475
0.23484912
0.27808558
0.32061765
0.36397833
0.39385607
0.4052131
0.40348693
0.40185973
0.398862
0.39586145
0.39266009
0.3785465
0.36388369
0.3512057
0.33752869
0.32773968
0.31804819
0.30989094
0.30125462
0.2938668
0.284031
0.2748126
0.26613453
0.25765793
0.22822092
0.22704414
0.22602087
0.22440061
0.23321417
0.27457842
0.31564557
0.35696859
0.38579333
0.39751512
0.3965943
0.39581277
0.39276501
0.3893105
0.38888704
0.37497428
0.36114662
0.34867506
0.33549209
0.32533209
0.31596257
0.30798367
0.29959152
0.29228061
0.28344819
0.27435832
0.26583001
0.25748628
0.2276887
0.22650361
0.22548146
0.22385512
0.23145933
0.27141549
0.31054059
0.34994341
0.37778088
0.38976184
0.39046075
0.38976128
0.38665508
0.38359697
0.38478875
0.37137647
0.35838966
0.34611759
0.33351792
0.32292406
0.31393583
0.30609376
0.29796468
0.29074298
0.28284857
0.27387691
0.26549652
0.2572838
0.22715303
0.22596002
0.22494041
0.22331195
0.22975497
0.26812526
0.30540482
0.34291813
0.36974749
0.38235314
0.38429022
0.38367551
0.38046976
0.37810251
0.37894147
0.36774267
0.35559159
0.34352206
0.33151431
0.32051563
0.31191603
0.30420744
0.29634598
0.28921105
0.28221828
0.27336129
0.2651329
0.25704788
0.22661433
0.2254138
0.22439801
0.22277876
0.22801512
0.26482726
0.30030846
0.33596833
0.36159781
0.37647487
0.37809643
0.37762361
0.37432683
0.37271789
0.37328436
0.36407322
0.35275485
0.34087687
0.32945418
0.31863043
0.30986215
0.30230329
0.2947003
0.28768583
0.28092666
0.27280459
0.26472167
0.25676491
0.22605321
0.22486025
0.22385352
0.22224434
0.22630015
0.26155624
0.29527894
0.32900108
0.35382895
0.37055979
0.3719166
0.37159323
0.36860771
0.36744461
0.36774422
0.36075084
0.34987769
0.3381808
0.32734211
0.316705
0.30776994
0.30036944
0.29303847
0.28615804
0.27956507
0.2722094
0.26427004
0.25643572
0.22547463
0.22430665
0.22330621
0.22170709
0.22466809
0.25837133
0.29042614
0.32198338
0.34747817
0.36463307
0.36579719
0.36556295
0.36364067
0.36240916
0.36226754
0.35768344
0.34696308
0.33544206
0.32519016
0.31473186
0.30565964
0.2984148
0.29136477
0.28461749
0.27819973
0.2715715
0.26377927
0.2560631
0.22489237
0.2237492
0.22275547
0.22116638
0.2231147
0.25528598
0.28549684
0.31590667
0.34104402
0.35870405
0.3596922
0.35952874
0.35866694
0.35739438
0.35681517
0.35458727
0.34401572
0.33267358
0.32300711
0.31271962
0.30354331
0.29644608
0.28967905
0.28305612
0.27682544
0.27074469
0.26324842
0.25565207
0.22430646
0.22318796
0.22220145
0.22062257
0.22163002
0.25226084
0.28057244
0.3106078
0.33461155
0.3527957
0.3535904
0.35406667
0.35371025
0.35241476
0.35142142
0.35146311
0.34102614
0.33024267
0.32078966
0.31066798
0.30155924
0.29446189
0.28798148
0.28146854
0.27545576
0.26944788
0.2626791
0.25521114
0.22371674
0.22262268
0.22164359
0.22007495
0.22026011
0.24915164
0.27669367
0.30521911
0.32828412
0.34690288
0.34747738
0.34923169
0.3487617
0.34745434
0.34644503
0.34830532
0.33800131
0.32785484
0.31854664
0.30858235
0.29991221
0.29247001
0.28629617
0.27988794
0.27409968
0.26816761
0.26208247
0.25474119
0.22312353
0.22205373
0.22108261
0.21952451
0.21886539
0.24645781
0.27271587
0.29983341
0.32203487
0.34100974
0.34149293
0.34438651
0.34380272
0.34243781
0.34184664
0.34358446
0.33494009
0.32542543
0.31626113
0.3066654
0.29823093
0.29046844
0.28461057
0.27830634
0.27274644
0.26688797
0.26145738
0.25424477
0.22252714
0.22148151
0.22051573
0.21897222
0.21751541
0.2438725
0.26877488
0.29449183
0.31591502
0.33508412
0.33663528
0.33953136
0.33888003
0.33745676
0.33734669
0.33887042
0.33184487
0.32295894
0.31392773
0.30479624
0.29650478
0.28848912
0.2829083
0.27670706
0.2713771
0.26559781
0.26072028
0.2537143
0.22192758
0.22090594
0.21994535
0.218431
0.2167101
0.24131341
0.26492779
0.28920142
0.30985238
0.32929027
0.33177744
0.33448596
0.3339833
0.33272969
0.33293146
0.33426921
0.32877151
0.32045668
0.31154889
0.3028854
0.29472821
0.28663266
0.28117294
0.275156
0.26997305
0.26437864
0.25955589
0.25315179
0.22132246
0.22032188
0.21937289
0.2178928
0.21618995
0.23882559
0.26121859
0.28405692
0.30382902
0.32467359
0.32694279
0.32950982
0.32910595
0.32860951
0.32857395
0.32973524
0.32613142
0.31792016
0.30913373
0.30093975
0.29290885
0.28478941
0.27941259
0.27364191
0.26854697
0.26314881
0.25838526
0.25255679
0.2207111
0.21973211
0.21879774
0.21735229
0.21566741
0.23641335
0.25761672
0.27893243
0.29835231
0.32004346
0.32213202
0.32457569
0.32424873
0.3245104
0.32424887
0.32524192
0.3234587
0.31534958
0.30668848
0.29896432
0.29104573
0.28328568
0.27762701
0.27212076
0.26710717
0.26190794
0.25720112
0.25193004
0.220097
0.21913988
0.21821953
0.21680807
0.21514081
0.23408723
0.25412391
0.27382001
0.293633
0.31541508
0.3173657
0.31966657
0.31986246
0.32043227
0.3201314
0.32080179
0.32075919
0.31274203
0.30426045
0.29695194
0.28913841
0.28173992
0.27580965
0.2705766
0.26564315
0.26064653
0.25599383
0.25126861
0.21947981
0.21854466
0.2176374
0.21625852
0.21460834
0.23188298
0.25059903
0.26986613
0.28889876
0.31080664
0.31262964
0.3147662
0.31588679
0.31636988
0.31606501
0.31666889
0.31803238
0.31009974
0.30211981
0.29490728
0.28719824
0.28016524
0.273972
0.26901323
0.2641551
0.25936013
0.25477172
0.25035603
0.21885942
0.21794623
0.21705116
0.21570362
0.21407043
0.22968145
0.24755261
0.26589559
0.28423421
0.3059659
0.30790336
0.31006892
0.31191619
0.31232182
0.31198608
0.3128181
0.3151825
0.30742573
0.29995235
0.29283722
0.28523331
0.27857044
0.27212686
0.26744283
0.26265613
0.25806303
0.25354869
0.2492687
0.21823599
0.2173448
0.21646122
0.21514422
0.21352945
0.22766569
0.24477856
0.26191545
0.27972122
0.30066721
0.30317198
0.30605008
0.30792758
0.30827876
0.30788643
0.3090338
0.31120092
0.30471822
0.29774761
0.29072866
0.28343445
0.27694703
0.27027314
0.26586488
0.26114649
0.25675819
0.25231687
0.24817745
0.21760968
0.21674065
0.21586808
0.21458138
0.21300522
0.22585178
0.24203057
0.25801031
0.27533909
0.29551699
0.29867483
0.30204053
0.30395291
0.30424953
0.30407761
0.30533246
0.30735642
0.30199534
0.29551172
0.28857901
0.28167278
0.27528428
0.2684432
0.26427085
0.25961638
0.25543425
0.25106163
0.24706551
0.21698039
0.21613367
0.21527806
0.21404141
0.21249426
0.22408826
0.23934973
0.25421915
0.27109411
0.2904451
0.29489462
0.29805499
0.30001949
0.30023803
0.30063605
0.30168903
0.30357274
0.29965937
0.29324687
0.28639974
0.27988381
0.27357922
0.2670134
0.26265062
0.25807581
0.25409687
0.24978578
0.24593296
0.2163627
0.21555372
0.21472094
0.2135069
0.21197857
0.22239504
0.23673643
0.25051883
0.26688535
0.28590264
0.29111238
0.29410152
0.29610834
0.2962498
0.29721815
0.29807426
0.299818
0.297291
0.29094908
0.28418572
0.27806363
0.27183652
0.26557817
0.26099902
0.25659065
0.25273862
0.24848833
0.24479182
0.2157518
0.21497912
0.21416045
0.2129678
0.21145747
0.22077377
0.23418891
0.24689155
0.26278041
0.28181483
0.28734096
0.29019537
0.29219695
0.29280547
0.29381427
0.29450927
0.29611204
0.29489343
0.28861862
0.28196117
0.2762115
0.2700574
0.26410978
0.25931817
0.25514798
0.25135054
0.24725438
0.24363568
0.21513737
0.21440036
0.21359599
0.21242317
0.21092969
0.21923134
0.23172267
0.24327063
0.25951424
0.2777616
0.28359382
0.28631892
0.28828899
0.28947467
0.29042822
0.29096164
0.29275708
0.29246736
0.28625436
0.28000833
0.27432819
0.26824795
0.26261252
0.25761545
0.25368362
0.24993678
0.24602026
0.2424563
0.21451908
0.21381708
0.21302705
0.21187245
0.21039475
0.21776337
0.22925133
0.24035083
0.25622928
0.27381732
0.27986974
0.28245094
0.28479311
0.28615113
0.28706399
0.28742157
0.28952979
0.29000918
0.28385726
0.27802782
0.27241506
0.26640856
0.26108915
0.25589546
0.25220246
0.2485026
0.24476699
0.2412551
0.21389674
0.21322917
0.21245353
0.21131594
0.20985321
0.21631916
0.22711172
0.23763736
0.25297597
0.26996778
0.2761613
0.27858678
0.28156216
0.28283117
0.28371874
0.2839074
0.28633402
0.28752396
0.2814286
0.27602038
0.27046961
0.26469368
0.25953758
0.25416137
0.25070629
0.24704833
0.2434939
0.24003014
0.21327023
0.21263659
0.21187552
0.21075411
0.20930681
0.21502384
0.22519875
0.23493368
0.24977996
0.26622301
0.27244693
0.27519913
0.27833378
0.27954217
0.28037151
0.28091077
0.28315913
0.28501256
0.27912434
0.27398881
0.26849637
0.26304813
0.25795761
0.25250891
0.24919589
0.24557791
0.24220248
0.23877994
0.2126396
0.21203948
0.21129328
0.21018868
0.20877558
0.21383869
0.22329245
0.23225394
0.24663202
0.26255748
0.26872647
0.27204087
0.27510111
0.27626048
0.27701522
0.27799029
0.27999209
0.28231458
0.27700547
0.27193082
0.2664999
0.26138285
0.25634964
0.25109832
0.24766785
0.24410036
0.24090243
0.23751673
0.21200633
0.21143968
0.21071073
0.20963554
0.20824672
0.21267716
0.22140857
0.2295997
0.24355628
0.2588855
0.26571084
0.26887167
0.27186566
0.27297231
0.27388956
0.27505373
0.27687369
0.27904552
0.27486212
0.26984072
0.26447296
0.25969177
0.25471298
0.24972993
0.24611758
0.24261815
0.23959177
0.23624249
0.2113894
0.21084199
0.21012693
0.20907741
0.20771277
0.21154262
0.21954247
0.22696078
0.24046833
0.25554284
0.26267739
0.26570647
0.26859438
0.26967843
0.27103322
0.27213149
0.27380214
0.27597948
0.27269971
0.26772482
0.26257637
0.25797464
0.25305061
0.24833744
0.24454217
0.241249
0.23826167
0.23495528
0.21076836
0.21024003
0.20953844
0.20851379
0.20717302
0.21043838
0.21769758
0.2243294
0.23751424
0.25252745
0.25963873
0.26255735
0.26533094
0.2665604
0.26818254
0.26922768
0.27073869
0.27315574
0.27051289
0.26558243
0.26078064
0.25623219
0.25136366
0.24692231
0.24294828
0.23986238
0.23690872
0.23374571
0.21014296
0.20963351
0.20894488
0.20794413
0.20662671
0.20936619
0.21587505
0.22170719
0.23508791
0.24951494
0.25660861
0.25942295
0.26206076
0.26379476
0.26532803
0.26633747
0.2676879
0.2703457
0.26829963
0.26341258
0.25896086
0.25446413
0.24967835
0.24548439
0.241337
0.23845804
0.23553352
0.2325292
0.2095129
0.20902209
0.20834587
0.20736794
0.20607319
0.20832514
0.21403415
0.21975503
0.23262805
0.2465632
0.25358486
0.25628426
0.25903047
0.26102348
0.26248542
0.26344319
0.26493152
0.26754965
0.26606383
0.26128404
0.25712092
0.25266943
0.24816388
0.24402244
0.23971354
0.23704028
0.23414119
0.23129629
0.20887797
0.20840556
0.20774129
0.20678541
0.2055131
0.20730012
0.21262374
0.21777952
0.23019206
0.24366115
0.25056839
0.25313844
0.25630679
0.25824731
0.25965423
0.26054761
0.26227459
0.26476729
0.26380048
0.25937804
0.25525834
0.25085372
0.24662988
0.24253834
0.23815331
0.23561174
0.23273784
0.23005184
0.20823814
0.20778398
0.20713144
0.20619739
0.204957
0.20642233
0.21120392
0.21580459
0.22778214
0.24081584
0.24753589
0.2504273
0.25357597
0.25548181
0.25682235
0.25782943
0.25962112
0.26199974
0.26151208
0.25745017
0.25337391
0.24901662
0.24507863
0.24102716
0.23687723
0.23416298
0.23132795
0.22879903
0.20759344
0.20715823
0.20652586
0.20562351
0.20441163
0.2055506
0.20978701
0.21382997
0.22539515
0.23798127
0.24466511
0.24783145
0.25084673
0.25272337
0.25398255
0.25534459
0.25697132
0.25924808
0.25932321
0.25550335
0.25146799
0.24726653
0.24350628
0.2394933
0.23557894
0.23269267
0.22994093
0.22753082
0.20697254
0.20655661
0.20593559
0.20505072
0.20386097
0.20469061
0.20837642
0.21185604
0.22304148
0.23513494
0.24219223
0.24522279
0.24812804
0.24995811
0.25129512
0.25285431
0.2543325
0.25648898
0.25732287
0.25353512
0.24953953
0.24563348
0.24191331
0.23794071
0.23426354
0.2312036
0.22863136
0.22624561
0.20635019
0.20595005
0.20534028
0.20447236
0.20330425
0.20384375
0.20697217
0.2098836
0.22065988
0.23281185
0.23969464
0.24261621
0.24541528
0.24717646
0.24887106
0.25035215
0.25169997
0.25373105
0.25530107
0.2515448
0.24758971
0.24398053
0.24030032
0.23637183
0.2329311
0.22970073
0.22730918
0.22494375
0.20572287
0.20533829
0.20473961
0.20388803
0.20274103
0.20300858
0.20557137
0.20788832
0.21869767
0.23045075
0.23719016
0.24000768
0.2426879
0.24461848
0.24643435
0.24785425
0.2490536
0.2512553
0.25325952
0.24953628
0.2457087
0.24231196
0.23866682
0.23497799
0.23158068
0.22819037
0.22597856
0.2236292
0.20509033
0.20472109
0.20413329
0.20329742
0.20217093
0.20218297
0.20415884
0.20631353
0.21678808
0.22810404
0.23468034
0.23739698
0.23994446
0.24225866
0.24398259
0.2453516
0.24639511
0.24880303
0.25119554
0.2475027
0.24398672
0.24062409
0.23701638
0.23356868
0.23021499
0.22667229
0.22464206
0.22230633
0.20445244
0.20409832
0.20352125
0.20270065
0.20159442
0.20136452
0.2030325
0.20484663
0.21487495
0.2257787
0.23216944
0.23476456
0.23759857
0.23987821
0.24153093
0.24283011
0.24394194
0.24635437
0.24879425
0.24544897
0.24224326
0.23891663
0.23534824
0.23214662
0.22882847
0.22540056
0.22329089
0.22097971
0.20380921
0.20347007
0.20290378
0.20209849
0.20102488
0.20065924
0.20195117
0.20337116
0.21296008
0.22346346
0.22963972
0.23231636
0.23528482
0.2374893
0.23907773
0.24030054
0.24159771
0.24393086
0.24624396
0.24355708
0.24048186
0.23718987
0.23379096
0.23070759
0.22742191
0.22420089
0.22192247
0.21964427
0.20316426
0.20284306
0.20229534
0.20151779
0.20046894
0.19995595
0.20086908
0.20189166
0.21105178
0.22115898
0.22714866
0.23013212
0.2329633
0.23510594
0.23661656
0.23800986
0.23932618
0.24152671
0.24370834
0.241754
0.23870267
0.23544344
0.23229985
0.22925011
0.22599822
0.22298591
0.22053652
0.2184056
0.20254314
0.20223371
0.20169736
0.20093618
0.19990803
0.19925699
0.19978824
0.20040871
0.20916066
0.21882397
0.22507837
0.22792709
0.23064354
0.23272048
0.23414535
0.23582366
0.23706603
0.23912093
0.24124882
0.23993384
0.23690669
0.2336792
0.23079271
0.22777508
0.22458126
0.22175505
0.21913579
0.21716451
0.20191697
0.2016192
0.2010942
0.20034917
0.19934151
0.19856262
0.19870836
0.19892147
0.20723896
0.21689849
0.22298332
0.22571982
0.22832725
0.23031731
0.23199834
0.23362584
0.23481392
0.23670773
0.23899117
0.23809751
0.23509409
0.23205405
0.22927161
0.22628377
0.2232984
0.22050918
0.21772866
0.2159172
0.20128563
0.20099935
0.20048558
0.19975639
0.19876892
0.19787208
0.19762791
0.19742203
0.20568068
0.21495711
0.22087887
0.22350576
0.22599846
0.2280081
0.22987454
0.2314202
0.23255496
0.23433109
0.23672933
0.23624396
0.23326223
0.23048801
0.22773409
0.22477715
0.222002
0.21925004
0.21631514
0.2146651
0.20064895
0.20037399
0.19987136
0.1991577
0.19819013
0.19718423
0.19657612
0.19632726
0.20412972
0.21302203
0.21876817
0.22128946
0.22365276
0.22596425
0.22773856
0.22921889
0.23028243
0.23218958
0.2344608
0.23437552
0.23144035
0.22890843
0.22618307
0.22325726
0.2206956
0.21797175
0.21517193
0.21339829
0.20000688
0.19974309
0.19925155
0.19855333
0.1976059
0.196534
0.1957521
0.19524741
0.20257722
0.21109639
0.21665454
0.21905461
0.22162784
0.223903
0.22560266
0.22701265
0.22807508
0.23004527
0.23220224
0.23248802
0.22982229
0.22731515
0.22461713
0.22190283
0.21937508
0.21667946
0.21406176
0.21211919
0.19935946
0.19910677
0.19862694
0.1979547
0.19704178
0.19593506
0.19492963
0.19416736
0.20102546
0.20917902
0.21452431
0.21702244
0.21965222
0.22183649
0.22346819
0.22479347
0.2260948
0.22789062
0.22995072
0.23058385
0.22818928
0.22570646
0.22303499
0.22054182
0.21804046
0.21537378
0.21294022
0.21082895
0.19872955
0.19848949
0.19802696
0.19737041
0.1964783
0.1953385
0.19410939
0.19308737
0.19947904
0.20725452
0.2125277
0.21516486
0.21766684
0.2197677
0.22132185
0.22271836
0.2241043
0.22574074
0.22768788
0.2288798
0.22654215
0.22408642
0.22147718
0.21917005
0.21669366
0.21411963
0.21180734
0.20953001
0.19810492
0.19787361
0.19742202
0.1967811
0.19590977
0.19474397
0.19329113
0.19200689
0.19793077
0.2054214
0.21078129
0.21329139
0.21567918
0.21769493
0.21916232
0.22079438
0.22210388
0.2235916
0.2254201
0.22720321
0.22488142
0.22245032
0.22006946
0.21778602
0.21533559
0.21294424
0.2106639
0.2082285
0.19747527
0.1972526
0.1968119
0.19618644
0.19533573
0.19415076
0.19247388
0.19092518
0.1964839
0.20382613
0.20901807
0.21141403
0.21369134
0.21560401
0.2172881
0.21885562
0.22010508
0.22142609
0.2233372
0.22550257
0.22320729
0.2208005
0.21865023
0.21639093
0.21396716
0.21176108
0.20950803
0.20709001
0.19684055
0.19662638
0.19619653
0.19558633
0.1947561
0.19355869
0.19165906
0.19000181
0.19522768
0.20221216
0.20724616
0.20952951
0.21168657
0.21365868
0.21542225
0.21690628
0.21809657
0.21923892
0.22132116
0.22335133
0.22152012
0.21928742
0.21721692
0.21498364
0.21265729
0.21056808
0.20833851
0.20607995
0.19620075
0.195995
0.19557597
0.19498097
0.19417131
0.19297779
0.19098565
0.18923075
0.19395849
0.20059959
0.20546771
0.20763785
0.20973402
0.21187527
0.21355039
0.21496348
0.21608128
0.21729832
0.21931404
0.22123445
0.21982126
0.21781989
0.21577105
0.21356153
0.2114279
0.20936155
0.20715682
0.2050605
0.19555597
0.19535857
0.19495045
0.19437675
0.19360002
0.19244651
0.19035866
0.18846449
0.19269103
0.19899289
0.20368542
0.20573963
0.20804803
0.21007949
0.21168026
0.21301802
0.21413327
0.21536854
0.21731483
0.21912028
0.21823208
0.21634104
0.21431517
0.21212814
0.21018828
0.20814452
0.20596486
0.20403235
0.19492609
0.19473908
0.19434791
0.19379244
0.19303597
0.19191705
0.18973532
0.18770198
0.19143201
0.19739856
0.20188612
0.20417171
0.20634982
0.20828567
0.20981297
0.21106683
0.2123821
0.21343919
0.21533076
0.21701149
0.21673289
0.21485217
0.21284781
0.21082354
0.20893975
0.20691839
0.20486983
0.20299267
0.19430496
0.19412486
0.19374426
0.19320352
0.19246722
0.19138767
0.18911408
0.18694204
0.19018678
0.19579453
0.20042031
0.2025902
0.20465441
0.20649366
0.20793853
0.20931136
0.21062301
0.21159288
0.21334324
0.21503429
0.21522277
0.21335419
0.21136943
0.20954477
0.20768103
0.20568189
0.20379572
0.2019409
0.19367927
0.193506
0.19313593
0.19260977
0.19189348
0.19085759
0.18849429
0.1861845
0.18897059
0.19447959
0.19895051
0.20100679
0.20295956
0.2046898
0.2061455
0.20762546
0.20885989
0.20977903
0.21135118
0.21314824
0.21370244
0.21184586
0.20996551
0.2082571
0.20641452
0.204437
0.20271407
0.20088041
0.19304901
0.19288246
0.19252288