/*--------------------------------*- C++ -*----------------------------------*\
  =========                 |
  \\      /  F ield         | OpenFOAM: The Open Source CFD Toolbox
   \\    /   O peration     | Website:  https://openfoam.org
    \\  /    A nd           | Version:  7
     \\/     M anipulation  |
\*---------------------------------------------------------------------------*/
FoamFile
{
    version     2.0;
    format      ascii;
    class       volScalarField;
    location    "50000";
    object      T;
}
// * * * * * * * * * * * * * * * * * * * * * * * * * * * * * * * * * * * * * //

dimensions      [0 0 0 1 0 0 0];

internalField   nonuniform List<scalar> 
113400
(
994.01406
994.01406
994.01406
994.01406
928.37587
907.76795
876.98365
828.14847
747.78338
604.87763
560.85555
573.9626
628.41271
946.13212
372.81721
389.96164
411.93481
448.34035
479.37422
521.54343
568.23079
627.32766
692.73668
728.37993
730.3931
710.9186
607.41666
321.23684
979.06401
966.01269
944.64049
920.28687
879.99522
824.86423
753.57418
659.82057
656.52758
646.82907
644.56613
757.91729
795.1994
471.64352
407.21428
429.98869
460.34068
501.28406
545.70072
597.12317
660.40534
731.73076
813.7931
890.53098
962.84481
1034.51
1111.8228
1194.3545
977.86227
955.50914
917.48553
869.64662
810.53743
734.56688
681.30026
683.99611
684.99715
705.94988
743.58066
917.2318
600.27883
421.07204
427.30047
446.43496
488.51406
525.01687
577.84822
634.00834
701.4557
775.06059
852.93708
933.94472
1013.272
1090.7747
1167.7132
1242.1179
975.56018
944.66848
892.37904
824.77482
750.36561
707.53126
699.69493
706.6015
717.61995
737.36647
873.60271
727.41655
451.52694
418.88035
444.28858
468.81964
515.69209
556.50079
610.94815
668.93463
737.06629
810.28929
882.69249
957.37164
1032.633
1105.9363
1176.7471
1244.426
974.20616
936.95769
875.89411
807.05175
762.1042
734.48903
734.58954
738.33389
752.13377
824.03159
869.2093
622.21151
426.76251
432.09445
455.55019
489.63425
533.54163
580.06286
635.83878
693.75691
757.20515
827.39555
898.0075
967.34747
1035.9144
1103.1987
1168.8229
1232.3103
975.26974
937.11193
875.96262
840.48199
792.01224
783.00258
763.57138
773.13973
800.68119
919.88918
766.67535
528.7337
424.30844
443.00765
463.17737
508.69895
549.99862
601.21521
657.35458
714.2807
775.23311
840.378
907.69887
974.7196
1040.8515
1105.3655
1168.5047
1229.946
978.76993
950.15657
907.0087
860.62442
835.6143
802.66964
800.10041
814.0107
860.39133
891.05629
709.31284
447.96744
431.71131
454.56987
477.02516
526.40945
565.43032
619.02073
674.8228
731.53342
790.16865
849.80017
913.41997
977.53831
1041.064
1103.7567
1165.3554
1225.6248
983.27757
960.95916
942.88122
890.73574
852.55514
839.8009
836.2148
840.81658
937.40968
807.57396
646.66228
445.53595
443.80955
465.25531
493.52595
542.54701
580.46898
635.04524
690.23495
746.57115
802.73231
861.3306
919.40213
980.29546
1041.6374
1102.3791
1162.2881
1221.1782
990.85011
982.54954
950.18416
914.93755
885.0537
866.65975
865.26149
908.44306
917.7432
747.12582
556.27684
444.97493
454.79512
474.94275
509.63785
557.27809
596.11073
650.04383
704.20407
759.88835
815.05112
871.1924
928.23885
984.78754
1042.6667
1101.7221
1160.2223
1217.8668
992.415
988.57714
976.35728
933.83603
906.51848
899.57134
898.2073
949.66219
862.36287
724.89688
482.10601
446.45379
465.95652
482.47552
524.69469
571.03339
609.74783
662.88726
716.19931
770.75618
825.30685
879.2525
934.93612
990.59008
1045.8381
1100.9928
1158.227
1214.8509
994.84819
994.67625
975.73017
950.95588
935.4479
918.3611
942.78128
953.6754
809.65697
682.88999
471.67139
458.98245
477.57962
494.29168
539.18946
584.06234
622.19675
674.43262
726.94849
780.20388
833.96885
887.36306
940.38349
995.19144
1049.6353
1103.7386
1157.4014
1212.067
995.33946
994.11304
986.84019
969.19632
945.62355
957.74852
967.09674
909.32666
767.7055
602.99909
474.68594
470.95789
489.15207
508.4595
553.42688
597.07192
634.28119
685.38428
737.02366
788.95643
841.8875
894.58517
946.88796
999.29828
1052.9991
1106.3952
1159.4751
1212.1612
995.99553
996.15064
991.52669
974.00331
978.23427
966.1448
994.0596
868.42925
746.45242
540.28446
474.1278
481.71161
499.7017
522.19861
566.93739
609.58973
646.57823
695.3223
746.04389
796.91028
848.78841
900.76262
952.48461
1003.8968
1055.6874
1108.4473
1160.9301
1213.0908
996.61071
996.7484
992.84846
992.70075
981.15516
985.46535
956.41679
840.43188
718.24765
500.83067
476.44392
491.85781
509.35458
535.2123
579.49255
621.40444
658.19431
704.32598
754.138
804.22004
854.83065
906.09551
957.21396
1008.124
1058.7899
1109.9701
1161.8975
1213.5384
997.33538
997.58929
998.03228
994.72809
989.86089
1006.1035
926.69283
810.57527
681.2005
510.03382
488.27579
503.13828
518.89013
547.40605
590.83714
632.37587
668.97083
712.34843
761.34124
810.62747
860.04527
910.61682
961.13252
1011.51
1061.7454
1111.7786
1162.3102
1213.4672
998.18627
998.61789
999.44094
998.06597
1001.5527
1010.7536
898.97608
786.44724
638.51132
515.80575
500.0123
514.78218
528.91587
559.37551
601.92042
643.18763
679.51695
720.03164
768.17935
816.62428
865.31896
914.72947
964.6262
1014.4408
1064.1861
1113.804
1163.2722
1213.0808
999.19779
999.80759
1001.1401
1002.6676
1008.6487
984.25108
876.36127
759.96747
599.0519
518.80915
511.06534
526.18068
539.14571
571.09872
612.7349
653.79648
689.82721
727.48787
774.79707
822.39235
870.37318
918.62303
967.88482
1017.11
1066.3339
1115.4793
1164.542
1213.4857
1000.3198
1001.1867
1003.0674
1006.7778
1012.0629
968.76599
857.84651
740.81529
565.34323
519.00469
520.95955
536.71392
549.33705
582.03245
622.85441
663.68097
699.51319
734.39093
780.87352
827.67019
874.93706
922.42093
970.7231
1019.3644
1068.0589
1116.7224
1165.3598
1213.8518
1001.5306
1002.7256
1005.1122
1009.4052
1015.3933
958.80163
847.74286
731.17333
552.58546
518.68193
531.01146
547.06952
559.12545
591.66564
631.8935
672.61576
708.18399
742.39216
786.09097
832.15973
878.71008
925.58456
972.84525
1020.922
1069.0962
1117.285
1165.5032
1213.5407
1002.9081
1004.5573
1007.231
1012.085
1018.6737
949.70991
840.10451
720.50651
562.35417
528.74967
541.3743
557.27404
568.97636
600.7627
640.33005
681.01845
716.21753
750.36495
790.74052
836.11474
881.95212
928.20789
974.73638
1021.9723
1069.6242
1117.3314
1165.1128
1212.6913
1004.4112
1006.448
1009.4158
1014.8142
1021.9204
942.20502
833.06566
705.06518
570.63946
540.30248
551.6032
567.58614
578.92779
609.66477
648.55456
689.24643
724.02536
758.04035
795.17603
839.86616
884.99024
930.61345
976.56811
1022.8048
1069.9204
1117.1373
1164.4165
1211.5536
1005.9781
1008.4065
1011.6721
1017.6097
1025.1895
936.82799
829.47617
691.59652
578.30687
551.82839
562.10587
577.96781
588.89202
618.35272
656.59011
696.73196
731.64007
765.48333
799.47979
843.49134
887.89546
932.87683
978.23526
1023.7767
1070.0586
1116.7774
1163.5372
1210.215
1007.6041
1010.4255
1013.9984
1020.4739
1028.5842
932.24728
827.04335
681.82635
586.05463
563.08168
572.94596
588.35768
598.82258
626.90591
664.51949
703.81996
739.19027
772.8048
805.40906
847.10414
890.80353
935.12319
979.8621
1024.8327
1070.1496
1116.3589
1162.5821
1208.7852
1009.2887
1012.5035
1016.4024
1023.5938
1032.0891
928.06086
824.90852
674.86152
594.43025
574.22375
583.80283
598.76952
608.84914
635.37908
672.25084
710.83531
746.68859
779.9766
812.54551
850.68731
893.71966
937.36956
981.48899
1025.8695
1070.5743
1115.9295
1161.6113
1207.328
1011.0357
1014.6996
1019.1611
1026.8234
1029.5432
924.9387
822.63685
669.89443
602.95917
585.56419
594.78656
609.30819
619.10017
643.82126
679.9021
717.79456
754.11044
787.02127
819.47051
854.22805
896.61662
939.60768
983.11494
1026.9008
1071.0557
1115.5337
1160.647
1205.8714
1013.2078
1017.3204
1022.0546
1030.0609
1026.7067
923.20676
819.92585
667.93918
611.9725
596.99859
605.71632
619.80394
629.39126
652.21399
687.51882
724.72014
761.49493
794.00719
826.30598
857.76716
899.51172
941.83498
984.72609
1027.9127
1071.508
1115.4635
1159.6726
1204.4073
1015.5138
1019.9974
1024.9836
1033.3029
1025.7998
922.9191
818.69313
668.76396
621.91784
608.54607
616.71922
630.19012
639.7292
660.48545
695.04432
731.575
768.82243
800.9603
832.95713
864.34707
902.40877
944.10599
986.36657
1028.9426
1071.9749
1115.3754
1158.8495
1202.9588
1017.8722
1022.7228
1027.9472
1036.5726
1025.863
923.04714
819.97137
674.68145
632.85019
620.17612
627.83314
640.70599
650.19407
668.61231
702.44222
738.32735
775.69281
807.7681
839.4041
870.74754
905.28108
946.39016
988.04477
1030.0217
1072.4965
1115.3388
1158.299
1201.5779
1020.2767
1025.4901
1030.9394
1039.8578
1026.7709
924.78058
823.30091
686.7632
644.624
631.96789
639.01743
651.29565
660.75668
676.59113
709.75728
745.03586
781.61763
814.50677
845.72884
877.01668
908.17872
948.7093
989.75349
1031.1435
1073.0618
1115.3468
1157.7862
1200.4805
1022.7237
1028.2953
1033.961
1043.1647
1027.8015
927.64161
828.28812
701.03953
656.46763
643.93442
650.17371
661.9547
671.44809
684.47103
717.07266
751.74792
787.58201
821.25818
852.09082
883.18838
913.40411
951.12142
991.58727
1032.3819
1073.7347
1115.4567
1157.3664
1199.5705
1025.2127
1031.1385
1037.015
1046.5057
1029.6933
932.03036
834.80184
715.40578
668.44063
656.10928
661.37994
672.76256
682.23132
692.34557
724.40335
758.34503
793.55356
827.92942
858.41225
889.19939
919.39667
953.57545
993.50937
1033.7227
1074.5168
1115.6811
1157.0635
1198.7733
1027.7405
1034.0167
1040.0959
1049.8696
1032.5322
937.64192
842.40119
729.92352
680.66701
668.41486
672.74903
683.74147
693.1756
700.24443
731.76875
764.98277
799.55955
834.61198
864.70839
895.13334
925.26244
956.0745
995.49505
1035.1365
1075.3785
1115.9915
1156.8503
1198.0676
1030.3042
1036.9272
1043.2007
1053.251
1036.1529
943.90072
850.62764
744.40804
693.36053
680.65991
684.24213
694.79172
704.21666
708.28082
739.19408
771.67443
805.61927
841.13914
871.01468
901.08032
931.04457
960.31553
997.56665
1036.6639
1076.3456
1116.4059
1156.7397
1197.4637
1032.9005
1039.8671
1046.3519
1056.8172
1040.2636
950.58919
859.47036
758.97426
706.58103
693.0689
695.88227
706.07606
715.21464
719.60106
746.6574
778.43506
811.7748
846.54913
877.38
907.01904
936.71717
965.91401
999.70975
1038.292
1077.4329
1116.9453
1156.7561
1196.9873
1035.6489
1043.0196
1049.7861
1060.3942
1044.692
957.58228
868.61809
773.80302
720.29192
705.67618
707.76843
717.51939
726.29378
730.87138
754.16434
785.27011
818.03669
852.07768
883.84614
913.0033
942.38521
971.44255
1001.9516
1040.0359
1078.6447
1117.6172
1156.9084
1196.6487
1038.9012
1046.3987
1053.2383
1063.9819
1049.3799
964.82985
878.00919
788.94805
734.6689
718.44909
720.09696
729.03173
737.36961
742.16998
761.71767
792.19526
824.41541
857.73962
890.42165
919.09616
948.16319
976.99709
1005.5376
1041.9365
1080.0294
1118.4564
1157.2236
1196.4694
1042.1853
1049.8053
1056.7091
1067.5827
1054.2823
972.07943
888.26015
804.19653
749.60789
731.28367
732.52041
740.50023
748.45875
753.52984
769.23146
799.2067
830.88743
863.51593
897.08349
925.27945
954.05165
982.54568
1011.009
1044.003
1081.6215
1119.5047
1157.7461
1196.4944
1045.5001
1053.2386
1060.199
1071.1964
1059.3869
979.41699
899.32302
819.75894
765.00178
744.16861
745.11601
752.01431
759.6733
764.95154
776.81148
806.28466
837.42404
869.3867
903.01472
931.50492
959.94366
988.08725
1016.4237
1046.2232
1083.3877
1120.746
1158.4706
1196.7257
1048.8443
1056.6979
1063.7082
1074.822
1064.4849
987.46198
911.40872
835.8633
780.60028
757.13215
757.81866
763.65188
770.99723
776.43206
784.45448
813.45356
843.93719
875.36112
908.4173
937.77918
965.85161
993.65945
1021.835
1049.2816
1085.3036
1122.1668
1159.3742
1197.1371
1052.2144
1060.1798
1067.229
1078.4501
1070.0052
996.22606
924.28392
852.21714
796.23979
770.20446
770.47595
775.35792
782.33343
787.92167
792.16919
820.7222
850.55456
881.46375
913.87906
944.156
971.79092
999.30651
1027.1713
1054.5296
1087.352
1123.7754
1160.4656
1197.7267
1055.6079
1063.6824
1070.7609
1082.0824
1075.9119
1005.4505
937.41789
868.66226
811.90403
783.42281
783.2075
787.16273
793.79594
799.4612
800.56471
828.06421
857.24788
887.65516
919.40713
950.59176
977.74664
1004.948
1032.441
1059.6512
1089.4889
1125.5023
1161.6973
1198.4718
1059.0215
1067.2024
1074.2993
1085.7328
1082.1312
1014.9184
950.61372
885.16202
827.73287
796.6847
796.11294
799.12162
805.50886
811.04595
812.49148
835.49928
864.06615
893.96298
925.04411
957.08817
983.74377
1010.6264
1037.734
1064.7878
1091.7604
1127.3718
1163.072
1199.3674
1062.4523
1070.7371
1077.9269
1089.5213
1088.4141
1024.402
963.73751
901.5459
843.94061
809.83059
809.16791
811.10629
817.2415
822.56286
824.1975
843.02422
871.00673
900.41544
930.86834
962.41696
989.89961
1016.4069
1043.1635
1069.9378
1096.4454
1129.4144
1164.6619
1200.4718
1066.1689
1074.5108
1081.7218
1093.3139
1094.6446
1033.8349
976.7396
917.99848
860.3007
823.12226
822.29959
823.13692
828.90138
833.99989
835.81475
850.57569
878.07244
907.01485
936.86779
967.89462
996.23027
1022.3262
1048.6991
1075.1346
1101.4252
1131.6218
1166.4432
1201.7848
1070.0978
1078.3229
1085.5332
1097.1224
1100.716
1043.1109
989.42514
934.59414
876.70263
836.51264
835.40407
835.25188
840.54045
845.35389
847.44285
858.17472
885.25452
913.74034
943.00876
973.53014
1002.6816
1028.3602
1054.33
1080.4139
1106.4635
1134.0088
1168.4109
1203.2961
1074.0508
1082.1598
1089.3657
1100.952
1106.6373
1052.2094
1002.2648
951.05919
893.48025
849.98192
848.5707
847.45474
852.30416
856.81445
859.15909
865.86962
892.54081
920.56378
949.26621
979.29893
1009.2196
1034.4895
1060.0575
1085.8043
1111.5796
1137.145
1170.5683
1205.0054
1078.0285
1086.0215
1093.2189
1104.8005
1112.4263
1061.204
1015.2553
967.51466
910.43981
863.47828
861.82098
859.60824
864.13922
868.30445
870.88491
873.65971
899.95465
927.40737
955.6487
985.20174
1015.4831
1040.719
1065.8826
1091.3258
1116.7268
1142.1258
1172.9148
1206.9334
1082.0324
1089.9104
1097.0973
1108.6736
1118.0033
1070.3601
1028.0084
984.29281
927.31492
877.00699
875.18588
871.74107
876.06242
879.85842
882.65207
881.55372
907.4783
934.33771
962.12974
991.22297
1020.9147
1047.0212
1071.7224
1096.8652
1121.8708
1147.0757
1175.4029
1209.0254
1086.0609
1093.8242
1100.9962
1112.5643
1123.6166
1079.5357
1040.9134
1001.1717
944.16149
890.59861
888.59471
883.99106
888.11532
891.65496
894.38426
893.24947
915.11393
941.41431
968.75776
997.3077
1026.4815
1053.4027
1077.6168
1102.4492
1127.0494
1152.055
1178.0339
1211.2671
1090.1119
1097.7604
1104.9366
1116.4653
1129.2304
1088.6732
1053.7299
1018.0429
960.82312
904.32788
901.83638
896.35507
900.18644
903.47284
906.02962
905.07039
922.85398
948.62746
975.54958
1003.5279
1032.2201
1059.8915
1083.6233
1108.1373
1132.3347
1157.125
1181.1525
1213.6916
1094.1856
1101.7198
1108.9211
1120.4899
1133.7736
1097.7237
1066.3678
1034.8782
977.48145
918.11033
915.18169
909.50741
912.29537
915.24059
917.61186
916.75728
930.69069
955.97282
982.49799
1009.9165
1038.1499
1066.4795
1089.7983
1113.9335
1137.7964
1162.2259
1186.08
1216.2958
1098.4216
1105.9122
1113.1747
1124.5555
1137.7788
1106.6116
1078.7699
1051.3923
994.1777
931.57528
928.56866
922.6083
924.45173
926.9084
929.1856
928.41201
938.51376
963.44343
989.57537
1016.4507
1044.246
1073.1101
1096.1167
1119.8396
1143.3903
1167.4236
1191.0756
1219.0805
1102.8691
1110.2486
1117.4473
1128.6349
1141.7982
1115.3357
1091.0052
1067.9188
1010.6941
945.14891
941.9892
935.69986
936.64586
938.62876
940.8044
940.09335
946.45659
971.0372
996.76666
1023.1126
1050.5108
1078.8131
1102.576
1125.8325
1149.0846
1172.7175
1196.1678
1222.0387
1107.3372
1114.603
1121.7416
1132.7385
1145.8446
1123.8867
1103.0938
1084.4731
1026.8736
958.79074
955.37983
948.818
948.72836
950.39654
952.25565
951.76095
954.50511
978.76166
1004.0758
1029.9243
1056.9452
1084.6984
1109.2003
1131.969
1154.9186
1178.1449
1201.3961
1225.1808
1111.8281
1118.9788
1126.0639
1136.8789
1149.9322
1132.2299
1115.2546
1100.0976
1043.2539
972.44639
968.76668
962.00011
960.74794
962.21885
963.70648
963.37553
962.65369
986.60837
1011.3891
1036.8674
1063.5101
1090.7215
1115.949
1138.2334
1160.8903
1183.7215
1206.7253
1229.4703
1116.3424
1123.3776
1130.4154
1141.0561
1154.0574
1140.5338
1126.8631
1116.0278
1059.5637
986.96651
982.19722
975.16227
972.84227
974.09418
975.28209
975.07328
971.1661
994.56678
1018.8143
1043.9168
1070.1767
1096.8451
1122.774
1144.5765
1166.9476
1189.3873
1212.0962
1234.5803
1120.8785
1127.7974
1134.7926
1145.2632
1158.2008
1148.5782
1138.1099
1132.0875
1075.5079
1003.3487
995.70738
988.20827
985.07002
986.04319
987.00935
986.70733
983.00328
1002.6415
1026.3874
1051.1166
1076.879
1103.098
1129.6791
1151.0011
1173.0901
1195.1321
1217.5417
1239.7495
1125.4348
1132.2356
1139.1913
1149.4914
1162.3573
1156.3118
1149.2699
1147.7775
1091.1205
1019.3724
1009.1336
1001.3166
997.3414
998.0365
998.64009
998.22525
994.56423
1010.8146
1034.0908
1058.4769
1083.71
1109.5219
1136.5637
1157.5436
1179.3586
1201.0061
1223.1258
1245.0549
1130.0121
1136.693
1143.6074
1153.7514
1166.5396
1163.8942
1160.3171
1162.6103
1106.3433
1035.2498
1022.2364
1014.4367
1009.5722
1010.0565
1010.1646
1009.6874
1006.0574
1018.9396
1041.9146
1065.9581
1090.6727
1116.1283
1142.6506
1164.2378
1185.7131
1206.9855
1228.8368
1250.4962
1134.6912
1141.1724
1148.0193
1158.0425
1170.7554
1171.3181
1171.2778
1177.3839
1121.5024
1050.9055
1035.4105
1027.535
1021.8073
1022.0784
1021.701
1021.1701
1017.5692
1027.1951
1049.8707
1073.5759
1097.7786
1122.8988
1148.8884
1171.1032
1192.1548
1213.0975
1234.6774
1256.0183
1139.4481
1145.6795
1152.4558
1162.3667
1175.0108
1178.5992
1182.1844
1192.1616
1136.5013
1066.3035
1048.6126
1040.5536
1034.1074
1033.8975
1033.2734
1032.6032
1029.0317
1035.5704
1057.9579
1081.3195
1105.0306
1129.8295
1155.2907
1178.1348
1198.708
1219.3808
1240.5972
1261.6502
1144.232
1150.2184
1156.9224
1166.7323
1179.3171
1185.7628
1193.081
1207.0271
1150.5462
1081.6737
1061.7925
1053.5374
1046.4561
1045.7198
1044.8651
1044.0762
1040.4122
1044.0619
1066.1793
1089.0359
1112.4238
1136.8965
1161.8401
1185.3046
1205.4054
1225.8196
1246.6467
1267.4293
1149.046
1154.7921
1161.4233
1171.1445
1183.6791
1192.8485
1204.0292
1220.3517
1164.7232
1096.7174
1074.9452
1066.5475
1058.6217
1057.5928
1056.4564
1055.6134
1051.838
1052.6805
1074.5304
1096.8839
1119.9526
1144.0975
1168.5239
1192.5937
1212.2264
1232.3917
1252.8302
1273.3495
1153.8919
1159.4021
1165.9598
1175.6015
1188.0928
1199.8798
1214.2258
1233.1854
1178.836
1111.4676
1088.0861
1079.5938
1070.7043
1069.5242
1068.0501
1067.153
1063.2628
1061.4121
1083.0066
1104.8587
1127.6267
1151.3338
1175.3504
1199.99
1219.1646
1239.0969
1259.1523
1279.4211
1158.7707
1164.0486
1170.5314
1180.0993
1192.5434
1206.5687
1223.8879
1246.0422
1192.7732
1125.8605
1101.2831
1092.3371
1082.8412
1081.4184
1079.7125
1078.441
1074.7145
1070.2493
1091.5114
1112.9481
1135.4285
1158.6349
1182.3195
1207.1402
1226.2148
1245.9179
1265.6056
1285.6509
1163.6824
1168.7308
1175.136
1184.6398
1197.0863
1212.9948
1233.5437
1258.9533
1206.5579
1139.9752
1114.5328
1104.9672
1095.0526
1093.3478
1091.4655
1089.7506
1086.233
1079.7508
1100.023
1121.1586
1143.339
1166.0439
1189.4282
1213.7886
1233.3857
1252.8128
1272.1438
1291.9815
1168.6375
1173.5039
1179.9164
1189.3741
1201.6884
1219.3607
1243.2215
1271.9598
1220.0732
1154.1545
1127.2329
1117.6903
1107.3628
1105.3553
1103.1584
1101.1854
1097.6752
1091.3054
1108.6512
1129.5128
1151.3859
1173.5855
1196.6832
1220.522
1240.6983
1259.8047
1278.7758
1298.4042
1173.7839
1178.5163
1184.8528
1194.1491
1206.332
1225.6785
1252.938
1285.0898
1233.6601
1168.1371
1140.0578
1130.4491
1119.9487
1117.4357
1114.7396
1112.6323
1109.039
1102.6694
1117.3746
1137.9872
1159.4471
1181.2612
1204.0714
1227.3923
1248.1685
1266.8146
1285.5429
1304.9289
1178.9652
1183.5647
1189.8285
1198.9694
1211.0234
1231.9716
1262.7335
1298.3825
1247.0263
1181.8505
1152.9446
1143.1929
1132.5506
1129.4225
1126.3636
1124.072
1120.4528
1113.9876
1126.2112
1146.5833
1167.5437
1189.067
1211.5858
1234.3923
1255.7685
1273.9544
1292.4622
1311.487
1184.1834
1188.6514
1194.8466
1203.8398
1215.7698
1238.2756
1272.6671
1311.734
1259.3987
1195.6012
1165.8372
1155.9192
1145.2206
1141.1997
1138.0624
1135.5165
1131.8957
1125.3427
1135.1682
1155.3041
1175.7663
1197.0044
1219.2058
1241.5228
1263.4941
1281.2262
1299.5314
1318.1807
1189.4408
1193.7794
1199.9106
1208.7649
1220.5771
1244.6372
1282.6577
1322.7801
1271.9556
1209.1211
1178.7375
1168.6962
1157.7209
1153.0544
1149.773
1147.0318
1143.2332
1136.7292
1144.2298
1164.0854
1184.099
1205.0777
1226.7777
1248.7882
1271.3225
1288.6109
1306.7278
1325.0027
1194.7392
1198.9502
1205.0212
1213.7431
1225.4398
1250.8967
1291.1335
1333.8151
1284.4351
1222.4453
1191.6345
1181.5306
1169.9873
1164.9805
1161.4914
1158.6022
1154.5799
1148.1447
1153.4146
1172.7997
1192.5494
1213.262
1234.4656
1256.1798
1278.9743
1296.095
1314.0226
1331.9297
1200.0786
1204.1633
1210.1758
1218.7664
1230.3776
1256.6902
1299.5808
1344.9358
1296.8184
1235.5242
1204.6169
1193.9007
1182.3261
1176.9138
1173.2597
1170.0766
1165.9874
1159.5808
1162.7122
1181.6289
1201.1145
1221.5585
1242.2598
1263.7205
1285.9898
1303.7192
1321.3934
1338.945
1205.4588
1209.4203
1215.4018
1223.9195
1235.4281
1262.4423
1308.0629
1356.1727
1309.1102
1248.5609
1217.4316
1206.2059
1194.6982
1188.8632
1185.1039
1181.4228
1177.4522
1171.0287
1172.019
1190.5607
1209.7927
1229.8661
1250.176
1271.3901
1293.1409
1311.4916
1328.8431
1346.082
1210.9647
1214.816
1220.7346
1229.1454
1240.525
1268.1973
1316.6261
1367.5771
1321.2493
1261.6586
1229.7342
1218.6004
1207.0609
1200.8801
1196.8498
1192.8422
1188.944
1182.5779
1181.2774
1199.604
1218.5875
1238.1567
1258.2106
1279.1698
1300.4029
1319.3999
1336.3042
1353.3478
1216.5232
1220.2558
1226.1124
1234.4206
1245.6758
1273.9922
1325.3186
1379.2335
1333.5264
1273.9609
1242.172
1231.0174
1219.4287
1213.0014
1208.4019
1204.3607
1200.4766
1194.1923
1190.6465
1208.7616
1227.4974
1246.5631
1266.3612
1287.0587
1307.7753
1327.4219
1343.8759
1360.7429
1222.1264
1225.7422
1231.5384
1239.7493
1250.8852
1279.8533
1334.1824
1391.004
1344.68
1286.4749
1254.6675
1243.471
1231.8901
1224.9199
1220.055
1215.9084
1212.1283
1205.6984
1200.1183
1218.0166
1236.4183
1255.0662
1274.6307
1294.8257
1315.2618
1335.528
1351.5383
1368.2486
1227.7766
1231.2777
1237.0153
1245.1347
1256.1568
1285.8112
1343.0883
1400.796
1355.7855
1298.938
1267.2113
1255.9587
1244.4511
1236.6744
1231.8199
1227.5222
1223.8925
1217.3045
1209.7047
1227.3984
1245.2735
1263.6805
1283.0014
1302.6948
1322.8487
1343.7178
1359.2778
1375.8427
1233.4751
1236.8635
1242.5439
1250.5756
1261.4866
1291.7049
1350.6167
1409.9594
1366.9299
1311.3091
1279.7802
1268.5679
1256.5047
1248.5609
1243.6299
1239.2634
1235.594
1228.967
1220.7774
1236.8862
1254.2511
1272.4088
1291.4774
1310.6566
1330.5647
1351.2475
1367.136
1383.5016
1239.2218
1242.4986
1248.1213
1256.0645
1266.8833
1297.1093
1357.813
1419.1296
1378.1028
1323.6408
1292.4534
1280.918
1268.606
1260.5272
1255.4896
1251.0845
1247.2604
1240.5932
1232.5677
1246.2817
1263.3367
1281.2513
1299.9032
1318.733
1338.4069
1358.5578
1375.1283
1391.2533
1245.0256
1248.205
1253.7888
1261.663
1272.3617
1302.4521
1364.9978
1428.3677
1389.2589
1335.9243
1305.1113
1292.8466
1280.7788
1272.5104
1267.427
1262.6642
1258.7897
1252.2036
1244.3678
1255.668
1272.5291
1290.2095
1308.3383
1326.9279
1346.3611
1365.9776
1383.2589
1398.9442
1250.958
1254.041
1259.5514
1267.3183
1277.8867
1307.7961
1372.2335
1437.7277
1400.3375
1348.377
1316.9185
1304.9053
1292.9755
1284.5412
1279.4503
1274.1847
1270.3498
1263.8868
1256.1649
1265.1561
1281.8232
1299.2744
1316.8806
1335.2372
1354.3918
1373.5101
1391.5153
1406.7426
1256.9388
1259.9265
1265.3637
1273.025
1283.465
1313.1818
1379.5643
1447.2804
1411.5934
1359.8711
1328.8729
1317.0039
1305.1847
1296.6902
1291.0321
1285.806
1281.9179
1275.6681
1267.8633
1274.7412
1291.2181
1308.233
1325.5191
1343.6548
1362.2954
1381.1496
1399.8548
1414.6238
1262.9695
1265.8635
1271.2282
1278.7868
1289.1013
1318.6379
1387.0304
1456.8404
1421.5667
1371.5343
1340.8999
1329.1632
1317.4839
1308.7474
1302.6695
1297.5108
1293.5636
1287.491
1279.6525
1284.4284
1300.7258
1317.1995
1334.2652
1352.1751
1370.2991
1388.8874
1408.2772
1422.5805
1269.0515
1271.8534
1277.1467
1284.6052
1294.7972
1324.1579
1394.2393
1464.036
1431.5956
1383.1836
1352.982
1341.3582
1329.8959
1320.3794
1314.4089
1309.2396
1305.3203
1299.1264
1291.5446
1294.2064
1310.2945
1326.2603
1343.1057
1360.7887
1378.3873
1396.757
1415.7735
1430.6646
1275.1853
1277.8967
1283.1186
1290.4777
1300.5444
1329.4481
1400.1093
1470.9859
1441.6548
1394.7995
1365.1001
1353.6714
1341.6724
1332.1358
1326.1909
1321.0358
1317.0352
1310.8411
1303.4617
1304.0953
1319.6618
1335.4153
1352.0475
1369.211
1386.5783
1404.7295
1423.2039
1438.8639
1281.3704
1283.9919
1289.1428
1296.4299
1306.3934
1334.472
1405.8729
1477.9125
1451.7316
1406.386
1377.324
1365.5219
1353.4177
1343.9584
1338.0073
1332.9394
1328.4617
1322.6702
1315.4158
1314.0834
1329.1295
1344.6733
1361.0965
1377.7255
1394.8724
1412.8019
1430.7277
1447.1741
1287.6679
1290.2193
1295.3124
1302.4859
1312.2997
1339.4627
1411.619
1484.8648
1461.7993
1418.029
1389.2101
1376.9875
1365.2456
1355.8317
1349.9231
1344.6437
1339.9846
1334.543
1327.496
1323.8628
1338.692
1354.018
1370.1714
1386.3256
1403.2629
1420.8441
1438.3448
1455.583
1294.0441
1296.5193
1301.5325
1308.5925
1318.2566
1344.4672
1417.392
1491.8867
1471.8988
1429.4361
1400.4067
1388.5662
1377.1162
1367.7628
1361.9462
1356.1309
1351.6038
1346.4778
1339.6729
1333.6789
1348.3479
1363.471
1379.0674
1395.018
1411.7452
1428.7986
1446.05
1464.0566
1300.4717
1302.872
1307.8054
1314.7533
1324.2689
1349.5216
1423.2329
1498.9484
1481.5971
1440.0889
1411.7204
1400.1942
1389.0174
1379.8249
1373.4021
1367.7388
1363.2598
1358.5598
1351.7029
1343.6392
1358.0952
1373.0177
1388.0511
1403.7964
1420.3102
1436.8263
1453.8542
1471.6952
1306.9515
1309.2782
1314.1321
1320.9694
1330.3377
1354.6234
1429.0371
1504.8954
1490.4934
1450.8701
1423.1073
1411.8886
1401.0443
1391.5941
1384.9363
1379.4467
1375.0159
1370.8179
1363.6358
1355.9706
1367.9344
1382.4129
1397.1375
1412.6682
1428.8237
1444.9394
1461.7656
1479.0499
1313.4834
1315.7374
1320.5117
1327.2385
1336.458
1359.6339
1433.9068
1509.7236
1499.4837
1461.6627
1434.5552
1423.6493
1412.9832
1403.008
1396.5445
1391.1647
1386.8557
1382.6778
1375.591
1368.2002
1377.858
1391.7991
1406.3205
1421.6492
1437.2523
1453.1591
1469.7767
1486.4985
1320.0664
1322.2483
1326.9417
1333.5736
1342.671
1364.4373
1438.392
1514.4241
1508.4826
1472.4409
1446.0485
1435.493
1424.1797
1414.5274
1408.1857
1402.941
1398.6006
1394.5872
1387.5735
1380.4906
1387.6492
1401.2735
1415.5854
1430.7194
1445.7691
1461.4692
1477.877
1494.0309
1326.7541
1328.8801
1333.51
1340.0297
1348.9597
1369.1983
1442.8278
1519.0966
1517.4512
1483.1659
1457.6637
1446.2517
1435.4754
1426.0761
1419.8588
1414.7934
1409.9467
1406.5616
1399.5446
1392.8336
1397.3416
1410.8298
1424.9412
1439.5837
1454.3672
1469.863
1485.8022
1501.6644
1333.5286
1335.5941
1340.1391
1346.5352
1355.2981
1373.9857
1447.2861
1523.7999
1526.358
1493.9799
1468.0324
1457.1154
1446.7844
1437.6577
1431.6133
1426.1845
1421.3799
1418.2359
1411.6019
1405.0058
1407.1186
1420.4628
1434.3847
1448.4591
1463.0535
1478.3509
1493.7428
1509.4017
1340.353
1342.359
1346.8191
1353.0926
1361.6895
1378.8258
1451.789
1528.5318
1535.1489
1503.581
1478.4696
1468.0169
1458.1194
1449.3933
1443.1882
1437.4528
1432.8792
1429.815
1423.7524
1417.0757
1416.9759
1430.1785
1443.7279
1457.4141
1471.814
1486.9186
1501.7608
1517.2237
1347.2276
1349.1751
1353.5506
1359.7026
1368.1343
1383.7127
1456.2708
1532.604
1542.9335
1513.2539
1488.9505
1478.9515
1469.4784
1461.1652
1454.2569
1448.7927
1444.3931
1441.4741
1435.6047
1429.2187
1426.9016
1439.9783
1452.9394
1466.4421
1480.6575
1495.2136
1509.8528
1525.1216
1354.1522
1356.042
1360.3329
1366.3656
1374.6295
1388.5769
1460.2269
1535.771
1550.7259
1522.887
1499.4633
1489.903
1480.9285
1472.0636
1465.4201
1460.1552
1455.9493
1453.0931
1447.4403
1441.411
1436.9114
1449.7035
1462.2297
1475.5433
1489.5787
1503.5712
1518.0182
1533.089
1361.1257
1362.9584
1367.168
1373.1089
1381.2291
1393.4226
1463.9541
1538.8579
1558.4636
1532.4617
1510.0026
1500.9419
1491.482
1483.0365
1476.6112
1471.5377
1467.5885
1464.2664
1459.3823
1453.5921
1447.5051
1459.2298
1471.6009
1484.7192
1498.3846
1511.997
1526.2502
1541.0615
1368.2189
1370.0069
1374.1415
1379.9604
1387.9007
1398.274
1467.6754
1541.9276
1566.1293
1541.9677
1520.6276
1511.0452
1501.978
1494.0262
1487.8342
1483.0034
1478.8403
1475.5214
1471.3978
1465.7325
1459.8956
1468.8185
1481.0576
1493.9877
1507.067
1520.4989
1534.564
1548.8171
1375.3787
1377.1156
1381.1613
1386.8582
1394.6197
1404.2139
1471.4273
1545.0007
1573.7079
1551.489
1530.1531
1521.0051
1512.4913
1505.0168
1499.1003
1494.2962
1489.8932
1486.7834
1483.3816
1477.8637
1472.022
1478.4697
1490.5815
1503.2267
1515.825
1529.0759
1542.957
1556.648
1382.5846
1384.2711
1388.2283
1393.8038
1401.3886
1410.7739
1475.2326
1548.0758
1581.0675
1559.8707
1539.5648
1530.978
1523.0008
1515.9943
1510.3954
1505.0466
1500.9692
1498.0142
1495.4003
1489.6523
1484.1486
1488.1739
1500.1784
1512.2147
1524.6513
1537.7209
1551.2084
1564.5483
1389.8364
1391.4733
1395.3421
1400.7969
1408.2065
1417.3831
1479.0301
1550.6669
1587.701
1568.2271
1548.989
1540.9514
1533.4965
1527.0147
1520.8531
1515.8418
1512.0257
1509.2555
1507.3556
1501.3401
1496.2764
1497.9434
1509.7329
1521.2724
1533.5403
1546.4408
1559.3542
1572.5191
1397.1331
1398.721
1402.5016
1407.8357
1415.0702
1424.0702
1482.5678
1552.8619
1594.2624
1576.4928
1558.4181
1550.9195
1544.0338
1537.1765
1531.3557
1526.6208
1523.0552
1520.524
1518.8241
1513.0452
1508.3449
1507.7837
1519.0017
1530.3992
1542.4859
1555.1429
1567.5609
1580.5522
1404.4916
1406.0384
1409.7451
1414.9798
1422.0659
1430.8481
1486.1021
1555.0549
1600.7151
1584.631
1568.2032
1560.9251
1553.7108
1547.2369
1541.8521
1537.3802
1534.1032
1531.368
1529.6917
1524.7621
1520.4119
1517.4802
1528.3279
1539.5743
1551.4982
1563.5685
1575.825
1588.6391
1411.969
1413.47
1417.0855
1422.1974
1429.106
1437.6725
1489.721
1557.3211
1607.0311
1592.63
1578.0333
1569.9628
1563.2257
1557.28
1552.3508
1548.1665
1544.9346
1542.0558
1540.5912
1536.5181
1532.4883
1527.9326
1537.7112