/*--------------------------------*- C++ -*----------------------------------*\
  =========                 |
  \\      /  F ield         | OpenFOAM: The Open Source CFD Toolbox
   \\    /   O peration     | Website:  https://openfoam.org
    \\  /    A nd           | Version:  7
     \\/     M anipulation  |
\*---------------------------------------------------------------------------*/
FoamFile
{
    version     2.0;
    format      ascii;
    class       volScalarField;
    location    "50000";
    object      YCO;
}
// * * * * * * * * * * * * * * * * * * * * * * * * * * * * * * * * * * * * * //

dimensions      [0 0 0 0 0 0 0];

internalField   nonuniform List<scalar> 
113400
(
0.2276865
0.2276865
0.2276865
0.2276865
0.20590602
0.19914106
0.18906804
0.1731402
0.14699667
0.10058827
0.087256398
0.091750259
0.11132957
0.21033519
0.0049879399
0.0053778069
0.0060021003
0.0074882481
0.0081290218
0.0094049191
0.010445481
0.012113192
0.013468024
0.012262204
0.01083998
0.0062486932
0.00055533046
0.00059386516
0.22270971
0.21834086
0.21122571
0.20319183
0.18996745
0.17201685
0.14898046
0.11885376
0.11799997
0.114556
0.11395873
0.15161807
0.16211821
0.04496311
0.0066244716
0.0073797649
0.0081734946
0.0097707066
0.010884716
0.012157423
0.013959879
0.015950058
0.018431257
0.020015938
0.021324809
0.022733527
0.024666123
0.027043722
0.22231123
0.21479294
0.20208105
0.18618953
0.16679693
0.14205269
0.12587251
0.12688986
0.12759231
0.13427279
0.14679506
0.20195201
0.090021975
0.0083204635
0.007683237
0.0079529913
0.0095955293
0.010334664
0.012144516
0.01358741
0.015659378
0.017936132
0.020327732
0.022830603
0.025126324
0.027436567
0.029885532
0.032339001
0.22155792
0.21117219
0.19373056
0.1712909
0.14727347
0.13429511
0.13157095
0.13464772
0.13802415
0.1440776
0.18662058
0.13168417
0.027205134
0.0074029945
0.0084201905
0.0087578914
0.010886293
0.011721734
0.013485614
0.015005945
0.017213603
0.019710008
0.021932034
0.024393786
0.026975042
0.029478569
0.031898664
0.03418131
0.22112058
0.20864579
0.18839743
0.16557815
0.1520583
0.14186327
0.14354218
0.14434631
0.14844413
0.17081053
0.1780012
0.088293036
0.0086738182
0.0080795247
0.0087602352
0.0098469398
0.011485542
0.012808941
0.014674927
0.016316425
0.018264074
0.020830736
0.023313277
0.025664609
0.027982242
0.030259643
0.032471564
0.034565416
0.22146871
0.20873567
0.18857969
0.17767606
0.16077986
0.15858835
0.15231054
0.15478685
0.16278809
0.20066379
0.13905885
0.046664103
0.0079363937
0.0085728949
0.0086838357
0.010859112
0.011996938
0.01380565
0.015752053
0.017438856
0.01935864
0.021660014
0.024156952
0.026599322
0.028974957
0.031240462
0.033411577
0.035448088
0.22262927
0.21320971
0.19879897
0.18338487
0.17483103
0.16450633
0.16334689
0.16811539
0.18151326
0.18300602
0.11443546
0.0096749668
0.0082439927
0.0090975889
0.0093468932
0.011790149
0.012604968
0.014680804
0.016688848
0.018535956
0.020438361
0.022348085
0.024715544
0.027133341
0.029481715
0.031749692
0.033911048
0.035936286
0.22404812
0.21665697
0.21051405
0.19301638
0.18080778
0.17613482
0.17522526
0.17527996
0.20426637
0.1512466
0.086279896
0.009883961
0.0088979886
0.0094894449
0.010215408
0.012553925
0.013278956
0.01549452
0.017527919
0.019500261
0.021317626
0.023354742
0.025274751
0.027530384
0.029846743
0.032081453
0.034208997
0.036208348
0.22647165
0.22370127
0.21275554
0.20114213
0.19098402
0.18501452
0.1835531
0.19625662
0.19151962
0.1260017
0.047253545
0.0093623261
0.009414921
0.0097389287
0.011075413
0.013207519
0.014044995
0.016270018
0.018308775
0.020354333
0.022238947
0.024170407
0.026178206
0.028089337
0.030143252
0.032347714
0.034454376
0.036433509
0.22690248
0.22560213
0.22145369
0.20712822
0.19800869
0.19503953
0.19344524
0.2076738
0.16980133
0.11442963
0.013970213
0.0092678313
0.0099767515
0.0097992592
0.011875519
0.013863307
0.014719895
0.016948888
0.019012911
0.021070738
0.023035043
0.024866519
0.026866891
0.028834131
0.030714346
0.03254553
0.034634377
0.036605114
0.22759046
0.22743236
0.22103597
0.21264933
0.20708367
0.20057619
0.20649407
0.20429305
0.14861306
0.095480418
0.011853802
0.01000036
0.010534941
0.010332377
0.012640758
0.014523112
0.015342747
0.017566333
0.019656006
0.021699309
0.023710871
0.025614275
0.027425922
0.029431306
0.031347709
0.033178135
0.034909409
0.036739357
0.22758317
0.22703896
0.22453269
0.2183864
0.20991713
0.21247074
0.21307248
0.18702145
0.13095773
0.061605067
0.011783827
0.010656161
0.011063021
0.011098853
0.013392281
0.015199829
0.015996704
0.018157364
0.020259599
0.022277214
0.024317686
0.026263293
0.028117215
0.02993936
0.031884921
0.03374234
0.035509924
0.037178728
0.22758141
0.22749678
0.22588272
0.21956325
0.21990196
0.21399245
0.22038022
0.17034532
0.12003232
0.032934044
0.011394401
0.011199787
0.011501125
0.011841751
0.01411136
0.015877189
0.016729146
0.018704389
0.020808528
0.022819147
0.024851089
0.026823815
0.0287169
0.030523711
0.032331535
0.034213498
0.036005574
0.037703257
0.2275445
0.22745867
0.22593147
0.22509533
0.21994711
0.21889509
0.20420094
0.15786622
0.10607966
0.014163429
0.011263593
0.011691267
0.011865209
0.012546906
0.014788146
0.01653518
0.017445299
0.019209304
0.021308275
0.023330232
0.025322726
0.027313217
0.029231942
0.031074773
0.032833178
0.034606964
0.03642136
0.038142179
0.22750038
0.22743508
0.22718769
0.22511402
0.22167057
0.2244073
0.19184164
0.1444668
0.088395913
0.014726718
0.011972861
0.012287047
0.012271715
0.013210546
0.015417857
0.017162852
0.018127782
0.019672681
0.021761802
0.023785954
0.025738143
0.027739566
0.02967575
0.031542356
0.033334734
0.035044024
0.036763545
0.038506864
0.227445
0.22737489
0.22704853
0.22535201
0.22425849
0.22420539
0.17972346
0.13246411
0.067749785
0.014946678
0.012655134
0.012901498
0.012724317
0.013864953
0.016037645
0.017797692
0.018810813
0.020121442
0.0221965
0.024214595
0.026171053
0.028128297
0.030075218
0.031956919
0.033770683
0.035508882
0.037167973
0.03881432
0.22737169
0.22726533
0.22690637
0.22585535
0.22520096
0.21286593
0.16903319
0.11894439
0.047437516
0.014884628
0.013270114
0.013492454
0.013200971
0.014509286
0.016647149
0.018431361
0.019487566
0.020559433
0.02261808
0.024625571
0.026583798
0.028492071
0.03044404
0.032333889
0.034161438
0.035917514
0.037601548
0.039210117
0.2272891
0.22713379
0.22676718
0.22611301
0.224885
0.205457
0.15951666
0.10798959
0.028718135
0.01455078
0.013787852
0.014065458
0.013707082
0.015113381
0.017222041
0.019046581
0.020136969
0.020968838
0.023011308
0.025005693
0.026960187
0.028856087
0.030773132
0.032667046
0.034502752
0.036270995
0.037973105
0.03959584
0.2271992
0.22698346
0.22656277
0.22576268
0.22453765
0.19986414
0.15286222
0.10046785
0.018036675
0.014149059
0.014330204
0.014654758
0.01422103
0.015664028
0.017741736
0.019620663
0.020737183
0.021554183
0.023358685
0.025341047
0.027286232
0.0291821
0.031048769
0.032943676
0.034783363
0.036559523
0.038275413
0.039906845
0.22708263
0.22677946
0.22629723
0.2254026
0.22414855
0.19437576
0.14700178
0.092210266
0.018644758
0.014704148
0.014916984
0.015246948
0.014769463
0.01618748
0.018232068
0.020175627
0.021307529
0.02218786
0.023672946
0.02564414
0.02757732
0.02946899
0.031316213
0.033178194
0.035018573
0.036798642
0.038523122
0.040158946
0.22694616
0.22656909
0.2260232
0.22503013
0.22372609
0.189283
0.14110315
0.081484852
0.019100616
0.01542212
0.015534062
0.01585718
0.015341082
0.016701509
0.018712903
0.020726718
0.021868026
0.022801663
0.023972932
0.025932043
0.027851423
0.029735877
0.031579861
0.033389229
0.035227172
0.037008493
0.038731814
0.040372805
0.22680334
0.22635045
0.22573922
0.22464154
0.22326465
0.18483043
0.13632095
0.07107965
0.019486945
0.016136844
0.016181352
0.01648331
0.015928115
0.017204308
0.019184448
0.021209855
0.022417933
0.023397833
0.024263678
0.026209775
0.028113195
0.029988176
0.031825089
0.033614774
0.035415019
0.037195518
0.03891422
0.040556692
0.22665456
0.22612424
0.22544514
0.22423636
0.22274656
0.18050135
0.13180337
0.061761631
0.019868731
0.016849649
0.016864199
0.017115281
0.01653727
0.017699698
0.019649641
0.021644345
0.022972862
0.023983293
0.024745489
0.026482396
0.028370912
0.030233632
0.032059981
0.03384262
0.035589605
0.037367066
0.039077935
0.040718714
0.22649962
0.22589033
0.22513928
0.22378043
0.22220772
0.17611709
0.12714262
0.053204977
0.020299078
0.017581367
0.01755083
0.017753455
0.017173689
0.018191163
0.020110288
0.022075362
0.023525809
0.024555125
0.02537621
0.026747816
0.028623998
0.030471971
0.032287362
0.03405982
0.035792746
0.037526556
0.039228128
0.040864735
0.22633786
0.2256377
0.2247674
0.22330595
0.219379
0.17197135
0.12216401
0.045094588
0.020741693
0.018328415
0.018249677
0.01840681
0.017838351
0.018681636
0.020570224
0.022504245
0.024073963
0.025114801
0.02598259
0.027006256
0.028870395
0.030703053
0.032507039
0.034267583
0.035991862
0.037678682
0.039366579
0.040997083
0.22609665
0.22530546
0.22437241
0.22283455
0.21622473
0.16823485
0.1167372
0.037930223
0.021292316
0.019085405
0.018946589
0.019060591
0.018512675
0.019169767
0.02102896
0.022931794
0.024619657
0.025668153
0.026577533
0.027262425
0.029113518
0.0309287
0.03271965
0.034466511
0.036179755
0.037858566
0.039492995
0.04111645
0.22583284
0.22496654
0.22397449
0.22236597
0.21377323
0.16495561
0.1117125
0.031728618
0.021928023
0.019854105
0.019653483
0.019734532
0.019200625
0.019651256
0.021482297
0.023355637
0.025161969
0.026219567
0.02715301
0.02789026
0.029351415
0.031153297
0.032928892
0.03465985
0.036360665
0.038026778
0.039626103
0.041225577
0.22556298
0.22462196
0.22357336
0.22189485
0.21164198
0.16169591
0.10757343
0.028175266
0.022658053
0.020632178
0.020374454
0.020434219
0.019910913
0.0201249
0.021928553
0.023773587
0.025654188
0.026757157
0.027705637
0.028492652
0.029581965
0.031372422
0.033133797
0.034848938
0.036536926
0.038188997
0.039777785
0.041328334
0.22528791
0.22427272
0.22317004
0.22142361
0.20979984
0.1590135
0.10428175
0.028201231
0.023468816
0.021426577
0.021105045
0.021145701
0.020636852
0.020593622
0.022369917
0.024188597
0.026037756
0.027287053
0.02824256
0.029076305
0.029810605
0.031589397
0.033334186
0.035034309
0.036708498
0.038345521
0.039921811
0.041450818
0.22500805
0.22391926
0.22276415
0.22095091
0.2079367
0.15670963
0.10183732
0.029296077
0.024284212
0.022236055
0.021850107
0.021865417
0.021376805
0.021063418
0.02281159
0.024603077
0.026422954
0.027816037
0.028779024
0.029643626
0.03031666
0.031806303
0.033537464
0.035221313
0.036879895
0.038500345
0.0400621
0.041579834
0.22472342
0.2235615
0.22235508
0.22047409
0.20639178
0.1551151
0.10000531
0.030396726
0.025110089
0.023063693
0.022618656
0.022602169
0.022128357
0.02153348
0.02325485
0.0250167
0.026808871
0.028339497
0.029309206
0.030189297
0.030909503
0.032019028
0.033740061
0.035408031
0.037050727
0.038654216
0.040200854
0.041705964
0.22443452
0.22319996
0.22194394
0.21999566
0.20522658
0.15407986
0.09859345
0.031509023
0.025958399
0.023902276
0.023402559
0.023356568
0.022897351
0.022005475
0.023700906
0.025433781
0.027197424
0.028862804
0.029834182
0.030722451
0.031481953
0.032229898
0.033941312
0.03559315
0.037219505
0.038805608
0.040336472
0.041828145
0.22414178
0.22283508
0.22153128
0.21951671
0.20438046
0.15330004
0.097376227
0.032614371
0.026849238
0.024764769
0.024198819
0.024118202
0.023676195
0.022497164
0.024151411
0.025854921
0.027589485
0.029363851
0.030356569
0.031252374
0.032039015
0.032647095
0.034142247
0.035780661
0.037388855
0.038956433
0.040470398
0.041947575
0.22384567
0.22246736
0.22111219
0.21900799
0.20374559
0.15267541
0.096351648
0.03372355
0.027788749
0.02565357
0.025009686
0.024903436
0.024475705
0.0233545
0.024603892
0.026279971
0.027987879
0.029729041
0.030882564
0.031777169
0.032577967
0.033225762
0.0343406
0.035967083
0.037559219
0.039107866
0.040604255
0.042066152
0.22352116
0.22205972
0.22064166
0.21849994
0.20324553
0.1521447
0.095350711
0.034853713
0.028799831
0.026560936
0.025847243
0.025704451
0.025282805
0.024206381
0.025058563
0.026708641
0.028392574
0.030101538
0.031413976
0.032300516
0.033108356
0.033786416
0.034539547
0.036154734
0.037730786
0.039260396
0.040738706
0.042184664
0.22309996
0.22161059
0.22017038
0.21799242
0.20285756
0.15168278
0.094331007
0.036010087
0.029905114
0.027484165
0.026728471
0.026511407
0.026087509
0.025059413
0.025516667
0.027142133
0.028803445
0.030481137
0.03194799
0.032826768
0.033640918
0.03433873
0.034892398
0.036346407
0.037907987
0.039417196
0.04087618
0.042305066
0.22267502
0.22115855
0.21969799
0.21748471
0.20256377
0.1511462
0.093641612
0.037214179
0.031066188
0.028412916
0.027618181
0.02732532
0.026892327
0.025916206
0.025978653
0.027580708
0.029218748
0.030866188
0.032482812
0.03335334
0.034175028
0.034878127
0.03546745
0.036540605
0.038092132
0.039580457
0.041019277
0.042430106
0.22224634
0.22070355
0.21922427
0.21697669
0.20236342
0.15057269
0.093282245
0.038477079
0.032272706
0.02934577
0.028523923
0.028158451
0.027710113
0.026778554
0.026445147
0.028023215
0.02963666
0.031255288
0.032921492
0.033875901
0.034698614
0.035403961
0.036021388
0.036737234
0.038279592
0.039748088
0.041166874
0.042559342
0.22181401
0.22024555
0.21874894
0.21646846
0.20214281
0.15033078
0.093852176
0.039793072
0.033499968
0.030285901
0.029439825
0.029003905
0.02853854
0.027645815
0.026915537
0.028471101
0.030056315
0.031649917
0.033288562
0.034395901
0.03521398
0.035921805
0.036561916
0.037025102
0.038468587
0.039920672
0.04131841
0.042691767
0.22137847
0.21978509
0.21827348
0.21596181
0.20216406
0.15057291
0.094915424
0.041133469
0.034731404
0.031236079
0.030369851
0.029856488
0.029367093
0.02851205
0.027389485
0.028925074
0.030481366
0.032052265
0.033659575
0.034920141
0.035726727
0.036439028
0.037082794
0.037576217
0.038657174
0.040098942
0.041474758
0.042826877
0.22093996
0.21932231
0.21779777
0.21545611
0.20242944
0.15118756
0.096139139
0.042482161
0.035964858
0.032199636
0.031321876
0.03071917
0.030207766
0.02939893
0.027938833
0.029383998
0.03091091
0.032460133
0.034034693
0.035444969
0.036235876
0.036947987
0.037586447
0.038100437
0.038843556
0.040276663
0.041631784
0.04296337
0.22049894
0.21885765
0.21732253
0.21494991
0.20290916
0.15197613
0.097406944
0.043835761
0.037215146
0.033174359
0.032292017
0.031597518
0.03107446
0.030294893
0.028896453
0.029848234
0.031348786
0.032875181
0.034415844
0.03596923
0.036741529
0.037451699
0.038082079
0.038614272
0.039033413
0.04045786
0.041791273
0.04310223
0.22005571
0.21839147
0.2168328
0.21442322
0.20348696
0.15280224
0.098630156
0.045176723
0.038504777
0.03416851
0.03327875
0.032478534
0.031942404
0.031182076
0.029826187
0.030316757
0.031792992
0.033297537
0.034807726
0.036339717
0.037255459
0.03795591
0.038581816
0.039116693
0.039516152
0.040642458
0.04195936
0.043248337
0.21955888
0.2178801
0.21631361
0.21389717
0.20409827
0.15362509
0.099762417
0.046523978
0.039822594
0.035177551
0.034273651
0.033363069
0.032808457
0.032057861
0.030741553
0.030789182
0.032243944
0.033727473
0.035209388
0.036715641
0.037778707
0.038464535
0.039081403
0.039610569
0.040020454
0.04082963
0.042132165
0.043400395
0.21902174
0.21736063
0.21579237
0.2133693
0.2046716
0.15436012
0.10062133
0.047884673
0.041186284
0.036196542
0.035265019
0.034253894
0.03368564
0.032920351
0.031654217
0.031266692
0.032701589
0.034163902
0.035618327
0.037099586
0.038305028
0.038974517
0.039579165
0.040099898
0.040516025
0.041022013
0.04230994
0.043557908
0.218481
0.21683759
0.21526816
0.21283865
0.20521333
0.15497824
0.10156409
0.049266254
0.042592846
0.037223339
0.036262191
0.035152097
0.034574489
0.033791812
0.032573627
0.031749839
0.033165277
0.034603921
0.036032658
0.037489497
0.038830858
0.039483825
0.040075513
0.040588546
0.041006022
0.041293312
0.042493766
0.043721968
0.21793666
0.21631105
0.21474121
0.21230587
0.20574046
0.1555283
0.10266515
0.050676709
0.044021959
0.038252365
0.037266915
0.036056213
0.035469408
0.034663768
0.033490289
0.032237929
0.033636432
0.035045909
0.036453289
0.037885238
0.039311235
0.039993043
0.040570464
0.041078997
0.041484697
0.041785679
0.042681398
0.043893313
0.21738854
0.21578065
0.2142107
0.21176992
0.2061841
0.15623797
0.10422293
0.052122553
0.045444713
0.039283717
0.038281935
0.036971132
0.036372272
0.035539735
0.034417812
0.032732967
0.034114657
0.035493544
0.03687896
0.038286899
0.039679663
0.04050211
0.041056898
0.0415598
0.041949595
0.042258879
0.042869995
0.044067064
0.21683708
0.2152469
0.2136778
0.21123244
0.20676979
0.15727292
0.10599842
0.053580276
0.046866623
0.04032047
0.039303334
0.03789704
0.037287371
0.036440111
0.03534762
0.033674725
0.03459885
0.035950581
0.037313703
0.038691766
0.040055575
0.041011422
0.041539697
0.042034572
0.042406066
0.042721665
0.043061408
0.044243322
0.21628268
0.21471037
0.21313984
0.21069505
0.20744345
0.15842837
0.10776588
0.055037698
0.048269797
0.041369481
0.040335531
0.038834247
0.038202853
0.03734032
0.036264692
0.034629823
0.03508789
0.036414882
0.037757654
0.039104016
0.040440878
0.041522714
0.042023654
0.042508555
0.042861289
0.043180394
0.043299317
0.0444254
0.21572533
0.21417088
0.21259556
0.21014137
0.20735264
0.15961014
0.10941768
0.056491093
0.049672985
0.042426089
0.041377748
0.039857876
0.039119573
0.038236764
0.037170408
0.035563869
0.035581784
0.03688574
0.03820956
0.039524859
0.040836406
0.042035844
0.042514644
0.042982509
0.043323641
0.043628014
0.043756271
0.044610995
0.21514022
0.21359331
0.21200856
0.2095841
0.20679817
0.16073891
0.1108518
0.057908938
0.051079349
0.043480116
0.042423206
0.04087463
0.040037541
0.039133216
0.038070588
0.036488104
0.03607694
0.037363315
0.038667275
0.039952456
0.041239905
0.042540913
0.04300938
0.043456331
0.04378718
0.044071423
0.044204174
0.044800738
0.21451881
0.21299263
0.21141968
0.20902631
0.20624298
0.16180124
0.11210158
0.059326208
0.052486982
0.04454417
0.043470667
0.041888082
0.0409561
0.0400319
0.038971207
0.037409861
0.036579068
0.037847636
0.039128891
0.040385445
0.041652059
0.042918339
0.043509423
0.043927778
0.044249098
0.044511803
0.044648174
0.044995572
0.21389472
0.21238972
0.21082816
0.20846543
0.20568405
0.16276753
0.11313343
0.060743801
0.053887924
0.045613762
0.04451274
0.042901347
0.041871223
0.040932026
0.039847207
0.038324172
0.037086052
0.038338922
0.039596163
0.040825809
0.042072918
0.043305578
0.044016851
0.044403547
0.044714221
0.04495402
0.045093777
0.045197536
0.21326746
0.21178382
0.21023248
0.20789859
0.20511818
0.16354149
0.11423086
0.062118302
0.055311468
0.046683113
0.045552182
0.043918624
0.042787687
0.041834953
0.040718728
0.039234341
0.037598577
0.038836972
0.04006281
0.0412732
0.042499657
0.043698168
0.044527882
0.044882801
0.045183482
0.045401413
0.045537975
0.045535397
0.21263689
0.21117461
0.20963238
0.20732589
0.20454617
0.16437569
0.11558221
0.06352968
0.056727362
0.047855415
0.046593966
0.044937013
0.043709609
0.042740417
0.041600223
0.040158165
0.03815099
0.039342215
0.04053654
0.041726637
0.042931201
0.044094378
0.045039037
0.045361799
0.04565259
0.045848498
0.045975009
0.045967256
0.21200325
0.21056242
0.20902854
0.20674881
0.20397247
0.1653576
0.11709825
0.064954793
0.058102527
0.049237181
0.047641352
0.045962454
0.044643995
0.043651292
0.042495606
0.04107175
0.039102786
0.039853525
0.041019693
0.042189437
0.043362237
0.044497291
0.04555016
0.045840269
0.046120895
0.046293294
0.046408405
0.046392618
0.2113667
0.20994765
0.20842181
0.20616916
0.20340081
0.16643367
0.11860042
0.066589016
0.059439984
0.050577849
0.048684841
0.046993055
0.04558053
0.044563678
0.043383705
0.041967312
0.040015765
0.040368897
0.041509139
0.042660909
0.043799269
0.044909329
0.046045835
0.046320198
0.046590946
0.046739692
0.04684406
0.046819435
0.21072707
0.20933009
0.20781216
0.20558514
0.2028276
0.16746173
0.11996997
0.068632212
0.06073211
0.051900587
0.049715114
0.048023104
0.046509307
0.045474779
0.04426558
0.04285121
0.040914163
0.040880709
0.042004749
0.043137364
0.044241598
0.045331396
0.046431482
0.046807149
0.047058552
0.047185338
0.047281051
0.047248255
0.21007
0.20870513
0.20720007
0.204996
0.20224867
0.16838124
0.12118463
0.070417863
0.062014954
0.053219813
0.050751385
0.049048542
0.047435121
0.046381764
0.045144275
0.043731931
0.041808428
0.041400283
0.04250776
0.043620911
0.044691204
0.045762503
0.046824849
0.047303904
0.04752574
0.04763542
0.047721565
0.047673734
0.20939972
0.20807471
0.20658391
0.20440104
0.20166265
0.16917476
0.12222517
0.071955513
0.063281466
0.054528202
0.051788559
0.050062235
0.048364076
0.047279358
0.046022978
0.044601362
0.042690469
0.041926406
0.043017763
0.044110485
0.045148103
0.04620185
0.0472266
0.047808999
0.047994736
0.04809423
0.048158594
0.048099513
0.20872528
0.20743933
0.20596258
0.20379854
0.20106715
0.16980103
0.12300506
0.073409971
0.06448824
0.055834152
0.052820778
0.05106886
0.049294253
0.048176703
0.046899132
0.04546946
0.043566039
0.042458916
0.043535074
0.04459386
0.045612674
0.0466474
0.04763521
0.048319453
0.048469506
0.048559905
0.048598878
0.048530574
0.20804621
0.20679851
0.20533532
0.20318757
0.20046134
0.17024572
0.12377114
0.074960019
0.065709772
0.057102233
0.053847129
0.052074892
0.050214411
0.049075968
0.047770411
0.046339296
0.044445002
0.042999192
0.04405993
0.045084316
0.046084744
0.04709965
0.048050017
0.048833778
0.048948248
0.049030385
0.049043706
0.048966799
0.20736234
0.20615214
0.20470217
0.20256883
0.19984637
0.17066148
0.12464272
0.076605132
0.066923361
0.058335587
0.054869224
0.053081487
0.051131195
0.049978199
0.048637299
0.047203779
0.04531823
0.043545166
0.044591646
0.045581375
0.046564864
0.047548763
0.048472025
0.049350302
0.049429928
0.049505385
0.049493404
0.049409313
0.20667364
0.20550033
0.20406349
0.20194343
0.199226
0.17113226
0.12559604
0.078209228
0.068115416
0.059525541
0.055894178
0.054069878
0.052050806
0.050872061
0.049507111
0.048049207
0.046189876
0.044096844
0.045122874
0.046084343
0.047051568
0.047998053
0.048901726
0.049824741
0.049914798
0.049983444
0.049947813
0.049859883
0.20598022
0.20484334
0.20341991
0.20131191
0.19859625
0.17162901
0.12653699
0.079703259
0.06928774
0.060680223
0.056921314
0.055051628
0.05297518
0.051765629
0.050382543
0.048894488
0.047064659
0.044724429
0.04565292
0.046594911
0.047543924
0.048452472
0.049339826
0.050227153
0.050406358
0.050461381
0.050402986
0.050312895
0.20528057
0.20417294
0.20275085
0.20065404
0.19795934
0.17208659
0.12739325
0.081055258
0.070425462
0.061839416
0.057915416
0.056041343
0.053908118
0.052663988
0.051255648
0.049750789
0.047925655
0.045606244
0.046189249
0.047114693
0.04804445
0.048914426
0.049786268
0.050631631
0.05090677
0.050941982
0.050860031
0.050767108
0.20455264
0.20346671
0.20205911
0.19999013
0.19731616
0.17248571
0.12816992
0.082281569
0.071568161
0.06299607
0.058921181
0.057032235
0.054872344
0.053566484
0.052121838
0.050604348
0.04877176
0.046462682
0.046729852
0.047640736
0.048540927
0.049383842
0.050239238
0.051043144
0.05141679
0.05141416
0.05132395
0.05122334
0.20381971
0.20275528
0.2013615
0.19931915
0.19666524
0.17280017
0.12882912
0.08338326
0.072692794
0.064140467
0.059930769
0.058017704
0.055834107
0.054460519
0.052988471
0.05145163
0.049617607
0.047314358
0.047276875
0.048173491
0.049035847
0.049860715
0.050698659
0.05146121
0.051933245
0.051892568
0.051796761
0.051671831
0.20308142
0.20203822
0.20065738
0.19864003
0.19600498
0.17300136
0.12932874
0.084458817
0.073741491
0.06528735
0.060937322
0.058996887
0.056799013
0.055340393
0.053859392
0.052294021
0.050460733
0.048164522
0.047830974
0.048713415
0.049537931
0.050345027
0.051162174
0.051885911
0.052455558
0.052377408
0.052278229
0.052126868
0.20233735
0.20131502
0.19994605
0.19795181
0.19533412
0.17306329
0.12986156
0.085601867
0.074809991
0.066403222
0.061940819
0.059977491
0.057751183
0.056224958
0.054726796
0.053139076
0.051295808
0.049012997
0.048390574
0.049254313
0.05004528
0.050837067
0.051612532
0.05231836
0.052981091
0.052866397
0.052765469
0.052587552
0.20158728
0.20058548
0.19922752
0.19725507
0.19465413
0.17316672
0.13047924
0.086841262
0.075866364
0.067491624
0.062939827
0.060960192
0.058686737
0.057113611
0.055590115
0.05398507
0.052130002
0.049859267
0.048957706
0.049784936
0.050559746
0.051334823
0.052068974
0.052757804
0.053474375
0.053358554
0.053255239
0.05305121
0.20083126
0.19984981
0.19850254
0.19655174
0.19396609
0.17331044
0.13115003
0.088031454
0.076907683
0.068545344
0.063944271
0.061908355
0.059627415
0.057998758
0.056454408
0.054821568
0.052966477
0.050702406
0.049531524
0.05032241
0.051080745
0.051838334
0.052530004
0.05320677
0.053876385
0.053860326
0.053745377
0.05351639
0.20006938
0.19910787
0.19776773
0.19583213
0.1932657
0.17345501
0.1317917
0.089155713
0.077933844
0.069588964
0.064935476
0.062852248
0.060568298
0.058881215
0.057322674
0.055647648
0.053804961
0.05154134
0.050102516
0.050865421
0.051607966
0.052336536
0.052998039
0.053663308
0.054286841
0.054372429
0.054236063
0.053988147
0.19928975
0.19834589
0.19701828
0.19510267
0.19255845
0.17355429
0.13236521
0.090183192
0.07893624
0.07063494
0.065887341
0.063802963
0.061503721
0.059766713
0.058181413
0.056477819
0.054641243
0.052386993
0.050665834
0.051415354
0.052142263
0.052827109
0.053473554
0.054125882
0.0547032
0.054893769
0.054718456
0.054468445
0.19850252
0.19757749
0.19626213
0.19436562
0.19184265
0.17358243
0.13284323
0.091061956
0.079950617
0.071629748
0.066851414
0.064752357
0.062435229
0.060659584
0.059025282
0.057315702
0.055477346
0.053235321
0.051236162
0.051972582
0.052682956
0.053325024
0.05395628
0.054594587
0.055125589
0.055421613
0.055206729
0.054956963
0.19770869
0.19680225
0.19549868
0.19362016
0.19111729
0.17353029
0.13321291
0.091963977
0.080871933
0.072648777
0.067818311
0.065701779
0.063373339
0.061535888
0.059877168
0.058152328
0.05632281
0.054075717
0.051813088
0.052535336
0.053219381
0.053827973
0.054446346
0.055040275
0.055555107
0.055952307
0.055698377
0.055451254
0.19690795
0.19601978
0.19472747
0.19286569
0.1903817
0.17338898
0.1336054
0.09289694
0.081795163
0.073657674
0.068786645
0.066650547
0.064318489
0.062399152
0.060738254
0.058992059
0.057176829
0.054925256
0.052397662
0.053107073
0.053744122
0.05433877
0.054942658
0.05549231
0.055990544
0.056486605
0.05619228
0.055948975
0.19610015
0.19522997
0.19394853
0.1921027
0.18963704
0.17326945
0.13404833
0.093922723
0.082720435
0.074650417
0.069753477
0.067609062
0.065224126
0.063274453
0.061600509
0.059842939
0.05802866
0.055778094
0.053174252
0.053685203
0.054277559
0.054857271
0.055445361
0.055948437
0.056434995
0.056925526
0.05669494
0.056447404
0.19528544
0.19443314
0.19316266
0.19133308
0.18888625
0.17319733
0.13457177
0.094982561
0.083646228
0.075633395
0.070728268
0.068546442
0.066135682
0.064155547
0.06246462
0.060699148
0.058876786
0.056621768
0.054040944
0.054248464
0.054817617
0.055382775
0.055934605
0.056411068
0.056887976
0.05732783
0.057207976
0.056950354
0.19446269
0.19362658
0.19236533
0.19055163
0.1881283
0.17314976
0.13510519
0.09602324
0.084565933
0.076604421
0.071701022
0.069448504
0.067052345
0.065034184
0.063333361
0.061533096
0.059707036
0.057458313
0.054903205
0.054806003
0.055364241
0.055915642
0.056418127
0.056881661
0.057347837
0.057736513
0.057731443
0.057434039
0.19362255
0.19280279
0.19155587
0.18976288
0.18736404
0.17308244
0.13560588
0.097012206
0.085470437
0.077592338
0.072601347
0.07036289
0.067967896
0.065913977
0.064207776
0.062361178
0.060537886
0.058299098
0.055762446
0.055369963
0.055917039
0.056455081
0.056908233
0.057359623
0.057809677
0.058152098
0.058263732
0.057923671
0.19277544
0.19197195
0.19073927
0.18896665
0.18659185
0.17297204
0.13605062
0.097913635
0.086393602
0.07850858
0.073515778
0.071278112
0.068880444
0.066803263
0.065042575
0.063198058
0.061364992
0.059147296
0.056611362
0.055940061
0.056475995
0.056975465
0.057404045
0.057844403
0.058245874
0.058574692
0.05879955
0.058416408
0.19192108
0.19113369
0.18991501
0.18816214
0.1858107
0.17280596
0.13642368
0.098862661
0.087202804
0.079448596
0.074435008
0.072196492
0.069799665
0.067683713
0.065882673
0.064041329
0.062197466
0.059997721
0.057467814
0.05651677
0.057042774
0.057491216
0.057907466
0.058335923
0.058688435
0.059003189
0.059339144
0.058911392
0.19105924
0.19028776
0.18908282
0.18734907
0.18502035
0.1725925
0.13685391
0.099827122
0.088025014
0.080383549
0.075356798
0.073114675
0.070728329
0.068525653
0.066731717
0.064883106
0.063039544
0.06083023
0.058333895
0.057098889
0.057611244
0.058012631
0.058416261
0.058832273
0.059134115
0.059441045
0.059745252
0.059416454
0.1901899
0.18943421
0.18824294
0.18652824
0.18422298
0.17242088
0.13731985
0.10088235
0.088849615
0.081310131
0.076278557
0.074042936
0.071600623
0.069379427
0.067582102
0.06572908
0.063875477
0.061668822
0.059198808
0.057688579
0.05815041
0.058540114
0.058931491
0.059295186
0.059586886
0.05988565
0.060135347
0.059930391
0.18931323
0.18857334
0.18739592
0.1856983
0.18341751
0.1722841
0.13783566
0.10195121
0.089674608
0.082228241
0.077208808
0.074928944
0.072471353
0.070237628
0.06843254
0.066584357
0.064683015
0.062518633
0.060064436
0.058284802
0.058696435
0.059074783
0.05945439
0.059763869
0.060046871
0.060336839
0.060530904
0.060452363
0.18842166
0.18769598
0.1865319
0.18485713
0.18260585
0.17215206
0.13834965
0.10300581
0.090495724
0.083149893
0.078107793
0.075780872
0.073349531
0.07109817
0.069291448
0.067419534
0.065499961
0.063370189
0.060942801
0.05885233
0.059249383
0.059613781
0.059974411
0.060237655
0.060512632
0.060775382
0.060932113
0.060980765
0.18751941
0.18680897
0.18566088
0.18400898
0.18178728
0.17200057
0.13883855
0.10402457
0.091318516
0.084057606
0.078944136
0.076644145
0.074229753
0.07196186
0.070159848
0.068233318
0.066326459
0.064225978
0.061830156
0.059419676
0.059808721
0.060160405
0.06046435
0.060718114
0.060983925
0.061193371
0.061338941
0.061511369
0.18660976
0.18591446
0.18478231
0.18315303
0.18096062
0.17181324
0.13928449
0.10502703
0.092106924
0.08490703
0.079792035
0.077510162
0.075109961
0.072837747
0.07097296
0.069060017
0.067154313
0.065097407
0.062702607
0.060001173
0.060374836
0.060714038
0.06096074
0.061204657
0.061460621
0.061615053
0.061752932