/*--------------------------------*- C++ -*----------------------------------*\
  =========                 |
  \\      /  F ield         | OpenFOAM: The Open Source CFD Toolbox
   \\    /   O peration     | Website:  https://openfoam.org
    \\  /    A nd           | Version:  7
     \\/     M anipulation  |
\*---------------------------------------------------------------------------*/
FoamFile
{
    version     2.0;
    format      ascii;
    class       volScalarField;
    location    "50000";
    object      YH2O;
}
// * * * * * * * * * * * * * * * * * * * * * * * * * * * * * * * * * * * * * //

dimensions      [0 0 0 0 0 0 0];

internalField   nonuniform List<scalar> 
113400
(
0.03179552
0.03179552
0.03179552
0.03179552
0.028754065
0.02780945
0.026402997
0.024179178
0.020529328
0.014050895
0.012194999
0.012839001
0.015698818
0.030384931
0.0057670304
0.0068342241
0.0084041
0.010998449
0.01308098
0.016097373
0.019373647
0.023814414
0.028289167
0.027721025
0.025952826
0.015764951
0.0014501737
0.0015512572
0.031101096
0.030491097
0.029497712
0.028376187
0.026530065
0.024024434
0.020809432
0.016605977
0.016494147
0.016030224
0.016003033
0.021755361
0.024705856
0.012535884
0.0081651777
0.0098522788
0.011895851
0.014984187
0.017973067
0.02151642
0.026043709
0.031232297
0.037271174
0.042350979
0.046738509
0.051018073
0.056125967
0.062040314
0.031046794
0.029997139
0.028222551
0.026004369
0.023297931
0.019845299
0.017590809
0.017742434
0.017860802
0.018847763
0.020949622
0.029669714
0.017051046
0.0095853192
0.0097202206
0.011109238
0.014094036
0.016587554
0.020440069
0.024346807
0.029225824
0.034628471
0.04036689
0.046313299
0.051987933
0.057586098
0.063233526
0.068759745
0.030943917
0.029494064
0.027059526
0.023927888
0.02057729
0.018770721
0.018400972
0.018851904
0.019374354
0.020484352
0.027279286
0.021636475
0.01138928
0.0091500123
0.01105904
0.012691327
0.016305914
0.019055817
0.023007407
0.027073561
0.032066
0.037525256
0.042834511
0.048399744
0.054047823
0.059544768
0.064855787
0.069918054
0.030886629
0.029145408
0.026319781
0.023136692
0.021254752
0.019841602
0.020095789
0.020250178
0.020972982
0.024644116
0.026910332
0.01738847
0.010022574
0.010187955
0.011918035
0.014367053
0.01766095
0.020966054
0.025045345
0.029163638
0.033764234
0.039067918
0.044370046
0.049556808
0.05468964
0.059733406
0.064649667
0.069383727
0.030941052
0.029164315
0.026352895
0.024836202
0.022486835
0.022198605
0.021356769
0.021785077
0.023278684
0.029388075
0.022720319
0.01373636
0.0096231696
0.01107198
0.012403537
0.015956247
0.018882545
0.022681798
0.026825235
0.030907403
0.03534741
0.040228049
0.045339807
0.050418602
0.05542411
0.06029303
0.065038404
0.069619237
0.031111858
0.029798675
0.027791636
0.025648653
0.024470492
0.023058813
0.022960137
0.023854612
0.0263182
0.02773242
0.020650213
0.010972994
0.010232761
0.011984738
0.013529506
0.017422625
0.020081748
0.024125607
0.028284586
0.032429087
0.036725941
0.041098031
0.045928433
0.050825027
0.055661189
0.060415395
0.065057054
0.069555778
0.031322812
0.030294133
0.029444605
0.027015829
0.025337091
0.024735328
0.024746147
0.025172577
0.030031563
0.024419049
0.018392156
0.011450344
0.011203804
0.012793732
0.014848632
0.018701444
0.02128786
0.025435676
0.029565924
0.033748771
0.037860984
0.042233085
0.046531519
0.051156819
0.055849939
0.060474038
0.064999697
0.069404175
0.031679411
0.031297784
0.029781627
0.028182232
0.02680584
0.026059396
0.026136083
0.028525693
0.028978819
0.022199703
0.015230751
0.011246015
0.012068985
0.013492965
0.01615828
0.019848663
0.022536779
0.026658644
0.030734412
0.034911079
0.038999871
0.04317708
0.047458467
0.051673983
0.056035772
0.060546941
0.064979786
0.06930206
0.031764695
0.031590727
0.031029415
0.029064238
0.027859679
0.027630552
0.027848031
0.030618599
0.026893688
0.02175779
0.013023439
0.011446029
0.012967193
0.01399587
0.017375095
0.02093127
0.023619311
0.027704719
0.031747265
0.03586745
0.03995852
0.043966065
0.048162384
0.052353536
0.05648535
0.060589433
0.064940471
0.069198049
0.031895798
0.031894423
0.03101688
0.029900521
0.029247827
0.028641287
0.030091009
0.030772889
0.025089133
0.020663009
0.013607311
0.012459167
0.013871912
0.014922813
0.018531556
0.021977877
0.024604482
0.028642742
0.032655026
0.036699445
0.040770001
0.044780382
0.048735515
0.052896948
0.056999821
0.061044665
0.06501766
0.069094702
0.031946392
0.031907487
0.031566357
0.0307965
0.029825147
0.030621567
0.03145637
0.029190674
0.02385074
0.018190677
0.013819294
0.013417196
0.014762149
0.016059785
0.019663615
0.023023291
0.02559623
0.029533686
0.033506216
0.037469377
0.041508398
0.045500465
0.049438138
0.053373201
0.057447234
0.061463521
0.065418819
0.069303139
0.032012885
0.032041923
0.031839436
0.03109944
0.031441709
0.031228696
0.032935637
0.027842281
0.023518828
0.016560474
0.013724324
0.014266856
0.015562038
0.017160422
0.020737797
0.024036452
0.026623898
0.030348291
0.034274381
0.038179095
0.042157227
0.046122514
0.050046227
0.0539174
0.057815414
0.061805825
0.065736875
0.069602565
0.032080856
0.03210827
0.031959809
0.032051035
0.031765146
0.03233855
0.031455398
0.027104883
0.0230035
0.016095732
0.013874567
0.015059594
0.016281561
0.018202931
0.021742696
0.024999398
0.027604208
0.031093213
0.034969295
0.03883725
0.042730163
0.046664569
0.050566265
0.054425843
0.058234042
0.062081621
0.065989717
0.069834447
0.032161066
0.032196553
0.032280655
0.032281826
0.032342356
0.03348745
0.030518136
0.026363559
0.022222764
0.016886424
0.014834171
0.015950641
0.017026071
0.019178637
0.02267206
0.025900609
0.028522007
0.031769448
0.0355934
0.039419583
0.043230248
0.047130966
0.051006441
0.05484642
0.058645028
0.06239329
0.066175264
0.070000972
0.032255688
0.032309746
0.032443155
0.032572159
0.033063976
0.033957143
0.02973259
0.025905033
0.021330304
0.017356928
0.015780424
0.016865312
0.017808167
0.020137573
0.02358073
0.02679533
0.029427169
0.032420049
0.036188608
0.039966565
0.043738659
0.047556267
0.051401086
0.055215306
0.058994695
0.062731132
0.066420535
0.070121714
0.032369349
0.032447086
0.032633905
0.032939007
0.033611176
0.033091625
0.029198407
0.025417331
0.020656675
0.017559013
0.016665936
0.017758728
0.01860665
0.021078719
0.024469733
0.027678768
0.030317595
0.033053452
0.036765845
0.040492809
0.044225555
0.047957159
0.051767452
0.05555088
0.059305513
0.063021573
0.06669751
0.070328592
0.032495711
0.032607103
0.032845899
0.033299475
0.033984028
0.032720084
0.028860361
0.025256071
0.020261244
0.01749192
0.017450362
0.018622256
0.019409356
0.021959797
0.025304827
0.028522613
0.031161848
0.033642738
0.03730083
0.040976736
0.044667278
0.048349171
0.052090153
0.055840984
0.05956766
0.063260124
0.066918381
0.070527807
0.03263231
0.032786376
0.033079536
0.033607683
0.0343536
0.032599376
0.028878952
0.025482643
0.020541507
0.01735255
0.018245647
0.019472758
0.020188321
0.022757896
0.026053343
0.029294018
0.031926889
0.034361248
0.037765954
0.04139366
0.045038981
0.048685087
0.052344896
0.056062642
0.059759893
0.063427282
0.067066397
0.07065167
0.032789448
0.033003038
0.033330151
0.033922231
0.034724822
0.032538721
0.029030751
0.0257113
0.021355409
0.018133422
0.019072825
0.020311595
0.020980991
0.023511333
0.026752632
0.030025231
0.032641882
0.035102398
0.038182093
0.041763698
0.045362535
0.048970286
0.052578699
0.056233777
0.059900012
0.063540195
0.067156988
0.070715994
0.032962498
0.033226009
0.033588528
0.034243335
0.035098085
0.032570009
0.029231717
0.025818531
0.022026913
0.01907285
0.019926511
0.021160638
0.021787321
0.024248038
0.027434214
0.030743851
0.033339177
0.03581732
0.038578382
0.042114037
0.045665495
0.049232748
0.052805349
0.056380495
0.060013562
0.063624965
0.067210856
0.070745573
0.033143074
0.033457076
0.033855412
0.034573192
0.03547922
0.032709787
0.029584445
0.026052721
0.022633037
0.020008447
0.020805054
0.022017424
0.022599605
0.024966782
0.028099925
0.031391905
0.034020307
0.036510754
0.038961997
0.042451582
0.045954321
0.049479591
0.053013428
0.056539188
0.060107898
0.063689269
0.06724179
0.070749653
0.033330643
0.033695384
0.034130697
0.034912144
0.035879594
0.032904298
0.030011431
0.026475005
0.02323592
0.020941225
0.021714623
0.022875989
0.023426939
0.025673902
0.028756314
0.031992231
0.034702981
0.037191961
0.039517924
0.042785509
0.0462409
0.049721927
0.053214183
0.056702495
0.06019327
0.063743074
0.067259848
0.070738627
0.033525189
0.033940777
0.034415329
0.03528172
0.03629297
0.033141813
0.030483913
0.027061621
0.023887884
0.02189171
0.022625049
0.023737432
0.024275058
0.026373505
0.029404152
0.032585809
0.035380962
0.037858158
0.040207649
0.043114173
0.04652553
0.049960758
0.053411493
0.056859955
0.060308446
0.06379093
0.067271112
0.070719093
0.033727186
0.034200358
0.034743414
0.035664463
0.036491227
0.033444802
0.030991207
0.027782959
0.024553933
0.022857329
0.023545586
0.024610763
0.025146099
0.027069498
0.030048089
0.033174182
0.036051896
0.038511366
0.040874376
0.043437112
0.046805973
0.050195868
0.053605406
0.057013105
0.060424788
0.063837505
0.067277781
0.070693797
0.033983255
0.034513999
0.035088217
0.036047887
0.036673838
0.033821065
0.031526238
0.028661003
0.025323127
0.023829979
0.024461446
0.025481218
0.026022869
0.027760755
0.030688573
0.033759339
0.036719166
0.039158122
0.041530748
0.043758892
0.047084882
0.050428059
0.053795524
0.057161477
0.060534796
0.06391263
0.067278724
0.070662552
0.03425648
0.034834315
0.035437076
0.03643163
0.036939261
0.034269129
0.032147919
0.029677738
0.026174053
0.024811644
0.025383684
0.026365228
0.026906784
0.028441792
0.031320495
0.03433839
0.037381317
0.039801789
0.042168035
0.044415424
0.047361862
0.05066263
0.053986222
0.057308842
0.06064304
0.063981896
0.06729054
0.070627967
0.034535931
0.03516038
0.035789907
0.036818506
0.037251948
0.034756819
0.032883453
0.030878584
0.027114467
0.025800163
0.026315794
0.027268078
0.027805388
0.029110693
0.031941738
0.034908812
0.037994302
0.040431147
0.042783875
0.045049359
0.047634487
0.050895906
0.054177596
0.057457651
0.060752915
0.064052037
0.067325065
0.070594808
0.034820813
0.03549136
0.036145973
0.037207041
0.037604871
0.035316891
0.033711689
0.032166346
0.028131983
0.026802377
0.027254157
0.028178561
0.028714853
0.029771781
0.032556111
0.035475482
0.038505327
0.041053343
0.04338625
0.045668097
0.047908096
0.051130644
0.054369104
0.057607706
0.060863683
0.064122671
0.067358797
0.070584807
0.035110651
0.035826759
0.036505335
0.037597893
0.037975303
0.035932041
0.034617482
0.033456341
0.029155001
0.027819219
0.028205097
0.029095712
0.029636762
0.030433104
0.033170419
0.036042343
0.039019591
0.041676584
0.04399092
0.046274788
0.048434082
0.051371234
0.054569652
0.057765752
0.06098109
0.064198924
0.067396684
0.070588242
0.035405355
0.036166535
0.03686832
0.037992507
0.038383643
0.036612103
0.035584992
0.034753013
0.030188994
0.028853691
0.029176743
0.030026959
0.030568121
0.031093992
0.033785971
0.036607073
0.039534631
0.042294529
0.044590931
0.046863442
0.049040567
0.051612774
0.054775403
0.057929995
0.061104958
0.064281762
0.067441044
0.070597282
0.035704485
0.0365103
0.037234236
0.038389481
0.038829874
0.037339001
0.036598692
0.036061919
0.031245253
0.029898913
0.030162662
0.030974072
0.031515114
0.031756748
0.034404464
0.037175559
0.040052824
0.042913357
0.045187648
0.047442739
0.049631529
0.051856363
0.054984489
0.058097987
0.061232745
0.064368695
0.067489413
0.070610069
0.036007642
0.036857699
0.037602692
0.038788265
0.039307928
0.038092697
0.037646735
0.037365526
0.032343547
0.030966326
0.031159741
0.031927955
0.032471467
0.032438005
0.035028106
0.037748993
0.040575791
0.043513249
0.045784284
0.04802187
0.050211582
0.052287257
0.05519865
0.058273899
0.061367121
0.064461597
0.067543152
0.070627692
0.036314411
0.03720835
0.037976616
0.039205758
0.039803053
0.038866243
0.03872696
0.038674198
0.033489592
0.032058691
0.032170145
0.03290352
0.033444333
0.033446444
0.035655312
0.03832784
0.041107132
0.043988756
0.046386236
0.048598752
0.050777964
0.052865299
0.055415955
0.058455459
0.061509112
0.064562214
0.067604406
0.070652509
0.03664072
0.037584904
0.038383005
0.039624217
0.040309149
0.039655764
0.039834005
0.040004577
0.034703827
0.033168943
0.033205925
0.033894043
0.034424509
0.034450765
0.036286502
0.038912666
0.041647664
0.044474584
0.046996798
0.049178127
0.05134087
0.053432036
0.055639406
0.058644453
0.061659019
0.064671164
0.067673978
0.070685448
0.037030254
0.037988254
0.038791319
0.040043715
0.040823124
0.040459358
0.040967786
0.041361722
0.036007573
0.03429443
0.034283481
0.034891134
0.035403953
0.035458079
0.036923286
0.039505457
0.042198193
0.044971784
0.047614989
0.049765624
0.051911627
0.053997222
0.056005361
0.05884459
0.061821761
0.064791991
0.067754586
0.0707287
0.037423367
0.038394697
0.039201726
0.040464648
0.041342669
0.041274144
0.042133244
0.042761967
0.037365026
0.035425957
0.035370122
0.035894954
0.036385165
0.036471433
0.037565308
0.04010597
0.042756719
0.045478663
0.048239194
0.050359126
0.052490032
0.05455704
0.056574367
0.059055724
0.061999997
0.064928203
0.067850088
0.070786204
0.037820021
0.03880423
0.039614354
0.040887113
0.041866067
0.0421023
0.043325319
0.044217153
0.038766399
0.03656251
0.036473139
0.036916412
0.037379195
0.037491485
0.038213566
0.040712592
0.043320829
0.045993491
0.048778797
0.050953943
0.053064688
0.055111168
0.057131595
0.059277127
0.062190091
0.065077885
0.067959651
0.070857879
0.038220132
0.039216844
0.040029356
0.04131112
0.04239036
0.042946669
0.04451054
0.045723945
0.040188123
0.037706853
0.037586776
0.037950554
0.03838427
0.038517915
0.03886782
0.041327393
0.043888278
0.046517299
0.049256259
0.051551056
0.053637267
0.055664163
0.057683372
0.059585716
0.062390014
0.06524055
0.068081684
0.070941739
0.038623364
0.039632224
0.040445917
0.041735694
0.04291642
0.043795105
0.045695928
0.04725496
0.041614545
0.03886184
0.038712983
0.03899239
0.039390926
0.039545708
0.039527812
0.041951225
0.044464287
0.047052449
0.049740466
0.052156521
0.054211372
0.056221743
0.058222747
0.060130936
0.062597677
0.065417067
0.068217162
0.071037363
0.0390295
0.04005023
0.04086408
0.042161156
0.043440394
0.04463945
0.046880118
0.048795169
0.043044085
0.040031033
0.039859752
0.040044863
0.040410541
0.040591985
0.040256988
0.042581985
0.045046952
0.047595668
0.050231174
0.052765987
0.054785438
0.056775882
0.05875123
0.060657716
0.062809618
0.06560042
0.068361328
0.071142911
0.03943818
0.040470558
0.041283401
0.042588585
0.043959419
0.045478725
0.048062824
0.050341373
0.044490915
0.041211485
0.04102479
0.041113333
0.041455453
0.041647124
0.041351741
0.043221288
0.045641025
0.048149355
0.05073147
0.053379308
0.05536097
0.057330465
0.059278141
0.061181489
0.063031252
0.065793947
0.068515199
0.071258576
0.039849121
0.040892917
0.041712586
0.043029613
0.044466828
0.046312439
0.049245688
0.05187696
0.045976737
0.042408428
0.042206122
0.042185754
0.042503415
0.042696651
0.042424654
0.043868735
0.046246055
0.048715579
0.051248151
0.053856684
0.055950023
0.057891907
0.059815442
0.061701765
0.063514414
0.065999413
0.068685948
0.071390106
0.040295111
0.041341995
0.042160242
0.043471681
0.044961568
0.047140997
0.050432327
0.053420182
0.047488853
0.043620893
0.043396687
0.043263416
0.043550951
0.043738907
0.043488619
0.044522969
0.046862327
0.049294587
0.051780167
0.054345641
0.05655406
0.058464086
0.060359556
0.062221772
0.064023979
0.066215926
0.068870306
0.071536852
0.04076766
0.041795783
0.042610249
0.04391609
0.045444734
0.047968075
0.051634508
0.054978406
0.049038977
0.044844438
0.044586259
0.044349638
0.044608991
0.04477117
0.044553825
0.045184979
0.047489171
0.049884629
0.052324479
0.054848104
0.057167235
0.059044272
0.060909127
0.062745349
0.064533906
0.066445581
0.069068068
0.071697927
0.041243338
0.042252796
0.043063117
0.044363384
0.045916371
0.048796886
0.052839967
0.056549393
0.050630541
0.046077116
0.045783309
0.045445185
0.045680318
0.045814199
0.045628296
0.045855512
0.048125525
0.050482288
0.052878787
0.055361743
0.057785986
0.059630442
0.061464394
0.063275804
0.065046631
0.066751556
0.069279916
0.0718738
0.041722136
0.042712984
0.04351873
0.044813244
0.046375523
0.049626965
0.054037403
0.058141737
0.052244179
0.04731378
0.046989466
0.046546267
0.046759674
0.046860572
0.046703795
0.046534259
0.048773356
0.051084406
0.053443916
0.055886524
0.058369212
0.060223098
0.062025374
0.06381537
0.065556849
0.067255919
0.069504688
0.072065904
0.042204175
0.043176552
0.043977531
0.045266248
0.04682559
0.050446428
0.055154551
0.05976899
0.05385272
0.04855465
0.048207369
0.047657021
0.047848638
0.047913101
0.047790186
0.047222681
0.049431263
0.051695044
0.054017641
0.056421414
0.058854177
0.060820451
0.06258397
0.064352276
0.066061368
0.067750757
0.069738214
0.072268724
0.042689167
0.043643191
0.044438919
0.045721556
0.04725353
0.051219806
0.056248486
0.061408658
0.055461323
0.049802426
0.04943262
0.048780169
0.048951168
0.048990214
0.048878986
0.048308682
0.050099129
0.052318938
0.054604489
0.056962321
0.059350829
0.061423053
0.063144604
0.064889626
0.066564688
0.068243298
0.069981444
0.072481465
0.043176796
0.044112528
0.044905235
0.04617831
0.047660706
0.05196839
0.057333068
0.063049339
0.057053392
0.051063532
0.050663526
0.049915426
0.050056201
0.050069734
0.049959096
0.049409792
0.050776061
0.05295482
0.05520562
0.05751518
0.059862231
0.062033263
0.063712796
0.065433226
0.067074168
0.068739851
0.070272346
0.072707628
0.043667032
0.044584596
0.045376552
0.046646288
0.048095044
0.052700664
0.058417661
0.064687536
0.058646728
0.052332818
0.051905588
0.051132244
0.051165171
0.051147463
0.051032387
0.050496207
0.051461823
0.053602159
0.055820117
0.058082348
0.06038993
0.062650328
0.064294416
0.06598322
0.06759753
0.069233166
0.070757529
0.072945889
0.044175619
0.045081381
0.045875348
0.04711826
0.048554067
0.053422365
0.059514719
0.066293436
0.06024473
0.053594441
0.0531525
0.052345163
0.052278637
0.052224371
0.052104215
0.051578167
0.05215054
0.054260481
0.056445372
0.058661649
0.060931459
0.063266647
0.064886526
0.066539689
0.068129559
0.069730669
0.071243259
0.073196597
0.044707931
0.045593372
0.046376431
0.047592082
0.049014984
0.054135541
0.060625864
0.06790044
0.061836551
0.054867213
0.054403243
0.053557342
0.053395625
0.053306349
0.05317995
0.052661838
0.052849881
0.054929638
0.057079336
0.059251419
0.061487236
0.063772219
0.065489619
0.067100503
0.06866711
0.070232796
0.071733337
0.073459793
0.045242562
0.046107393
0.046880081
0.0480689
0.049479178
0.054844555
0.061759903
0.069509637
0.063410834
0.056147045
0.055651247
0.054772045
0.054508611
0.054392768
0.054235057
0.053742894
0.053557884
0.055610208
0.057723443
0.059853803
0.062057352
0.064293236
0.066106036
0.06767195
0.069214605
0.070743842
0.072232433
0.073737082
0.045779801
0.046623865
0.047386992
0.04855008
0.049948188
0.055563686
0.062888183
0.071048796
0.06500644
0.057428541
0.056898995
0.055993016
0.055621567
0.055484477
0.055288986
0.054821412
0.054274875
0.056301561
0.058368733
0.060467497
0.06263821
0.064825158
0.066731706
0.068252708
0.069772306
0.071266149
0.07273713
0.074136035
0.046319759
0.04714298
0.047897331
0.049035665
0.050421676
0.056264697
0.063912431
0.072621707
0.066594945
0.058806555
0.058151129
0.057215331
0.0567421
0.05658132
0.056354968
0.055912455
0.055030447
0.057003144
0.059024216
0.06109054
0.06322759
0.065364981
0.06736222
0.068838207
0.070335224
0.071793774
0.073241433
0.074620167
0.046862295
0.047664577
0.048410765
0.049524959
0.050897675
0.056907863
0.06486724
0.074208196
0.0681457
0.060377964
0.059411117
0.058438834
0.057876297
0.05768558
0.057435736
0.056996631
0.0561377
0.057714922
0.059693128
0.061727073
0.06381886
0.065915778
0.067997793
0.069428548
0.070903121
0.072325312
0.07374887
0.075105301
0.047407286
0.048188433
0.048926895
0.050017087
0.051373105
0.057497067
0.06581286
0.075702896
0.06966199
0.06191216
0.060666808
0.05966904
0.059015062
0.058794132
0.058509858
0.058067904
0.05721461
0.058435046
0.060373217
0.062377491
0.064420721
0.066481169
0.068625746
0.070026822
0.071479585
0.072865483
0.074265814
0.075599412
0.047954839
0.048714664
0.049444415
0.05050933
0.051849555
0.058075398
0.066769444
0.077011163
0.071137338
0.063431112
0.061903176
0.060900805
0.060149699
0.059904971
0.059577449
0.059132373
0.058282948
0.059152384
0.061063767
0.063037814
0.065033185
0.067062244
0.069157408
0.070637448
0.072060373
0.073411816
0.074791145
0.076102686
0.048511384
0.049239026
0.049956861
0.051004034
0.052330126
0.058653781
0.067744791
0.078362362
0.072605794
0.064938568
0.063147206
0.062130648
0.061284679
0.061015549
0.060645651
0.060197925
0.059351913
0.059881461
0.061766015
0.063709868
0.06565779
0.067657459
0.069701493
0.071262794
0.072645589
0.073968154
0.075325931
0.076609529
0.049075092
0.049765376
0.050472315
0.051502757
0.052815444
0.059237685
0.068746823
0.079762647
0.0740585
0.066428721
0.064394381
0.063352203
0.062425979
0.062112628
0.06171706
0.061257197
0.0604143
0.060621136
0.062479714
0.06439249
0.06629471
0.068266224
0.070259326
0.071901965
0.073237703
0.07453869
0.075862939
0.077123229
0.049642066
0.050295508
0.050991341
0.052006337
0.05330662
0.059838294
0.069798132
0.081189682
0.075425171
0.067916739
0.065639442
0.064569996
0.063571863
0.063211133
0.062789751
0.062319424
0.061470429
0.061371079
0.06320515
0.065070459
0.066943795
0.068886186
0.070829159
0.072551954
0.07384107
0.075121648
0.076408876
0.077648113
0.050212618
0.050829758
0.051514401
0.052515296
0.053804112
0.060463321
0.070857575
0.08241826
0.076806317
0.069370817
0.066881647
0.065790259
0.064704536
0.064314473
0.063861621
0.063387212
0.062531502
0.062132474
0.063942111
0.065759775
0.067604599
0.069517405
0.071409938
0.073210966
0.074453657
0.0757148
0.076964833
0.078183743
0.050786919
0.051368248
0.052041596
0.053029413
0.054307477
0.061085659
0.071806692
0.083569807
0.078181051
0.070794202
0.068122435
0.067013944
0.065832277
0.065423433
0.064932907
0.064454007
0.063591144
0.062903428
0.064689994
0.06645995
0.06827796
0.070148505
0.072002589
0.073877541
0.075074627
0.076318003
0.077531208
0.078731191
0.051365046
0.051910997
0.052572875
0.05354828
0.054815213
0.061652363
0.072675035
0.084731352
0.079537215
0.072179651
0.069368566
0.068212788
0.066965308
0.066527858
0.066010356
0.065496562
0.064652523
0.063683613
0.065439381
0.067169911
0.068962121
0.070783067
0.072607302
0.074511429
0.075703744
0.076929537
0.078107456
0.07929157
0.051946964
0.052457902
0.053108015
0.054071853
0.055329578
0.062178745
0.073543507
0.085920479
0.080876876
0.073535093
0.070619513
0.069402793
0.068105555
0.06763512
0.067096231
0.066539547
0.065719803
0.064533056
0.066188454
0.067890752
0.069655492
0.071426477
0.073224201
0.075082747
0.076343015
0.077545483
0.078689076
0.079859028
0.052533396
0.053013795
0.053659739
0.054611727
0.05584931
0.062703076
0.074429936
0.087148687
0.082187002
0.074896738
0.07182302
0.070602127
0.06925557
0.068749672
0.068177085
0.067594722
0.066777699
0.065602788
0.06694759
0.068624582
0.070360888
0.072081318
0.0738539
0.075659307
0.076994651
0.07816828
0.079277093
0.080432539
0.053134923
0.053591685
0.054226327
0.055156305
0.056373821
0.063230649
0.075335449
0.088416358
0.083503864
0.076242187
0.073039162
0.071804656
0.07043428
0.069870903
0.069247744
0.068650062
0.067825657
0.066651078
0.067714582
0.069368665
0.071064299
0.072747633
0.074494718
0.076247181
0.077659947
0.078786404
0.079876227
0.081013033
0.05374037
0.054173659
0.054797376
0.055706024
0.056903729
0.063769624
0.076272741
0.089728315
0.084796444
0.077563109
0.074261091
0.073004783
0.071613622
0.070982591
0.070321713
0.069703117
0.068877126
0.067693839
0.06849145
0.070123264
0.071768283
0.073425178
0.075146066
0.076845721
0.078335834
0.079414931
0.08048843
0.08159034
0.054349938
0.054759971
0.05537321
0.056261372
0.057439728
0.064330287
0.077257857
0.091051519
0.085983607
0.078886989
0.075482713
0.074201999
0.072798905
0.072074007
0.071402368
0.070755117
0.069929851
0.06873861
0.069278921
0.070888771
0.072483129
0.074114041
0.07580534
0.07745502
0.079021821
0.080054075
0.081113311
0.082178144
0.054963896
0.055350952
0.055954204
0.056822822
0.057982408
0.064923826
0.078241899
0.092066106
0.087189594
0.080184788
0.07670408
0.0754034
0.073967106
0.073172439
0.072482923
0.071812888
0.070970701
0.06978497
0.070075324
0.071657997
0.073207019
0.074814626
0.076453522
0.078075841
0.079715381
0.0807017
0.081748267
0.082775915
0.055582448
0.05594681
0.056540476
0.057390234
0.058531261
0.065493111
0.079010742
0.093058614
0.088386021
0.081460176
0.077923952
0.076609683
0.075112037
0.074277316
0.073562901
0.072874886
0.072011168
0.070832603
0.070882708
0.072416712
0.07394126
0.075524503
0.077111373
0.078707343
0.080384441
0.081356594
0.082390178
0.083381122
0.056205641
0.056547518
0.057131802
0.057962879
0.05908674
0.065986108
0.079763587
0.094070635
0.089570756
0.082707669
0.07915167
0.077768528
0.076263653
0.075381805
0.074646807
0.073925409
0.07305654
0.07188064
0.071700063
0.073185549
0.074685412
0.076243782
0.077777635
0.079352045
0.080973438
0.082023987
0.083036759
0.083992149
0.056833459
0.057153085
0.057728925
0.058545125
0.059651162
0.06647123
0.080524932
0.095109454
0.090744233
0.083949139
0.080361308
0.078920337
0.077417748
0.076486747
0.075737388
0.074961124
0.074106501
0.072928163
0.072515775
0.073963156
0.075439239
0.076959939
0.078454369
0.080007843
0.081574214
0.082704674
0.083687422
0.084613129
0.057467168
0.057766563
0.058332965
0.059133984
0.060220906
0.066963306
0.081308537
0.096187854
0.091899623
0.085195759
0.081517434
0.080080623
0.078569606
0.077597518
0.076815999
0.076003156
0.075157613
0.073984815
0.073323372
0.074750723
0.076203342
0.077669799
0.079141583
0.080672912
0.082184159
0.083397437
0.084333119
0.085245306
0.058105787
0.058385057
0.05894211
0.059728409
0.06079666
0.067472239
0.082126073
0.097327233
0.093068573
0.086355765
0.082686993
0.08124217
0.07972072
0.078718066
0.077872494
0.077054435
0.076211477
0.075046844
0.074140908
0.075548588
0.076977622
0.078389911
0.079839018
0.081347217
0.082803316
0.084099761
0.084987808
0.085888573
0.058749359
0.059008824
0.059556666
0.060328792
0.061378869
0.06800323
0.082985578
0.098475063
0.094106858
0.087537531
0.083861566
0.082406371
0.080880508
0.079815165
0.078938481
0.078107325
0.077276586
0.076093953
0.074967723
0.076354907
0.077749502
0.079118065
0.08054691
0.082000432
0.083432389
0.084808261
0.085649205
0.086540766
0.05939809
0.059638118
0.06017692
0.060935446
0.061967874
0.068562008
0.08384382
0.099346435
0.095137285
0.088712404
0.085040035
0.083572818
0.082049537
0.080892954
0.080015109
0.079165718
0.078352219
0.077150019
0.075804988
0.077173068
0.078509562
0.079856449
0.081263672
0.082662461
0.084070017
0.085523264
0.086316011
0.087199551
0.060052133
0.060273077
0.060802957
0.06154828
0.062563311
0.069104729
0.084499349
0.10011226
0.096170592
0.089875849
0.086219792
0.084750894
0.083161229
0.081983749
0.081095162
0.08023637
0.07941786
0.078210767
0.076802131
0.078000591
0.079281001
0.080605159
0.081989647
0.083332023
0.084719328
0.086155131
0.086993534
0.087862351
0.060711497
0.060913614
0.061434535
0.062166624
0.06316391
0.069561753
0.08509113
0.10087021
0.097205619
0.091033551
0.0874094
0.085898379
0.084276669
0.083081905
0.082179182
0.081314189
0.080477293
0.07926581
0.077875405
0.078812958
0.080061951
0.081363878
0.082704037
0.084011781
0.085379898
0.08675784
0.087683369
0.088532948
0.061376073
0.061560318
0.062072513
0.06279091
0.063769792
0.070002974
0.085677017
0.10163886
0.098237263
0.092184403
0.088595319
0.086997216
0.085398454
0.084180375
0.083269996
0.082361477
0.081518272
0.080317217
0.078947742
0.079620435
0.080852312
0.082132858
0.083414674
0.08470213
0.086050128
0.08736972
0.088385775
0.089188816
0.062045538
0.062214977
0.062717028
0.06342064
0.064381014
0.07044549
0.086273716
0.10243181
0.099258697
0.093352044
0.089683666
0.088108816
0.086521347
0.085282444
0.084368517
0.083399401
0.082560401
0.081374746
0.080016635
0.080436949
0.081651595
0.082911197
0.08413457
0.085402561
0.086725166
0.087991194
0.089099287
0.089853029
0.062720278
0.062875159
0.063367095
0.064056114
0.064998175
0.070899264
0.086891693
0.10326553
0.10029788
0.094404858
0.090786621
0.08922323
0.087643982
0.086395728
0.085412927
0.084446734
0.083601584
0.082441162
0.08106934
0.081262082
0.082459733
0.083671154
0.084862666
0.08611244
0.087377609
0.088621969
0.089819047
0.090523194
0.063400407
0.063541058
0.064022961
0.064697673
0.0656217
0.071370591
0.087539369
0.10408847
0.1011779
0.095473932
0.091895945
0.090342655
0.088774767
0.087495685
0.086461272
0.085501523
0.084649455
0.083509456
0.082130119
0.082096354
0.083278263
0.084427735
0.085600538
0.0868314
0.088038627
0.089261039
0.090545189
0.091198517
0.064086063
0.064212843
0.064684803
0.06534549
0.066251745
0.07185692
0.088136509
0.10457008
0.10206048
0.096539677
0.09300971
0.091464304
0.089916178
0.088543368
0.087519193
0.086557185
0.085707634
0.084550323
0.083200491
0.082938526
0.084100637
0.085192368
0.086346354
0.087558009
0.088705824
0.08991194
0.091156491
0.091885444
0.064777347
0.064890573
0.065352615
0.065999365
0.066887656
0.072296379
0.088529672
0.10499766
0.10294448
0.097599966
0.09412575
0.092597229
0.09098005
0.089603198
0.088580138
0.087618517
0.086757742
0.085598021
0.084271663
0.083790847
0.084892402
0.085965252
0.087101011
0.088253609
0.089382077
0.090571756
0.091756407
0.092582671
0.06547424
0.065574132
0.066026192
0.066659208
0.067528841
0.072683593
0.088896021
0.10541699
0.10382848
0.098655273
0.095251733
0.093672637
0.092037663
0.090668721
0.089643123
0.088689913
0.087768644
0.086656663
0.08534506
0.084652116
0.085693196
0.086747414
0.087865445
0.088956874
0.090067451
0.091240222
0.092363981
0.09328959
0.066175411
0.066264872
0.066707047
0.067325262
0.068175329
0.073062503
0.089257683
0.10584006
0.10470956
0.099714928
0.09633462
0.094699733
0.09310273
0.091738178
0.090715369
0.089733476
0.088788389
0.087718289
0.086430642
0.08548218
0.086502769
0.087537242
0.088629
0.089667274
0.090761403
0.091899367
0.092979283
0.094004758
0.066881522
0.066961674
0.067393535