/*--------------------------------*- C++ -*----------------------------------*\
  =========                 |
  \\      /  F ield         | OpenFOAM: The Open Source CFD Toolbox
   \\    /   O peration     | Website:  https://openfoam.org
    \\  /    A nd           | Version:  7
     \\/     M anipulation  |
\*---------------------------------------------------------------------------*/
FoamFile
{
    version     2.0;
    format      ascii;
    class       volScalarField;
    location    "50000";
    object      YO;
}
// * * * * * * * * * * * * * * * * * * * * * * * * * * * * * * * * * * * * * //

dimensions      [0 0 0 0 0 0 0];

internalField   nonuniform List<scalar> 
113400
(
8.1370582e-22
8.1370583e-22
8.1370586e-22
8.1370594e-22
4.7566154e-20
6.208736e-20
8.3709254e-20
1.1789855e-19
1.7401596e-19
2.736318e-19
3.0224632e-19
2.9259202e-19
2.3142624e-15
1.6292364e-14
9.80684e-13
9.2373738e-13
4.2451309e-12
4.2101335e-11
2.2123357e-10
2.3039575e-09
6.6911706e-08
2.740582e-06
3.1936929e-05
9.0262395e-05
0.00015613306
0.00011737514
1.1465189e-05
1.2273915e-05
1.1496371e-20
2.0874163e-20
3.6146921e-20
5.3391738e-20
8.1777968e-20
1.203089e-19
1.6975629e-19
2.3442244e-19
2.3625164e-19
2.4363567e-19
2.4502574e-19
1.2174574e-14
1.6878497e-12
1.800094e-12
6.878413e-13
8.0578552e-12
3.5582558e-11
2.6834803e-10
1.3558203e-09
1.2153898e-08
2.5235486e-07
3.5719898e-06
2.0463451e-05
6.4593011e-05
0.0001302066
0.00019798869
0.00025706767
0.00030694317
1.2351125e-20
2.8489216e-20
5.5775358e-20
8.9886509e-20
1.3151252e-19
1.8462544e-19
2.1935436e-19
2.1716594e-19
2.1564804e-19
2.0133732e-19
7.9723228e-15
3.886008e-13
3.5312021e-12
7.8609709e-12
3.2014335e-12
2.523797e-11
1.2823699e-10
8.1264587e-10
5.4130973e-09
5.2490029e-08
6.3231148e-07
3.9701554e-06
1.4881661e-05
3.6189167e-05
6.5329345e-05
9.7716454e-05
0.00012781639
0.00015631725
1.3967027e-20
3.6260092e-20
7.3698562e-20
1.2186504e-19
1.734176e-19
2.0127325e-19
2.0711548e-19
2.0050086e-19
1.932789e-19
5.2951581e-15
2.0786788e-14
5.8976422e-12
1.4958401e-11
5.0044e-12
3.0011398e-11
8.4075437e-11
6.336771e-10
2.4929211e-09
1.6199636e-08
1.4987191e-07
1.0004195e-06
4.0627831e-06
1.1053788e-05
2.2166549e-05
3.6491045e-05
5.336822e-05
7.1743625e-05
9.2240574e-05
1.4904142e-20
4.1681288e-20
8.514407e-20
1.3412465e-19
1.6314248e-19
1.8502115e-19
1.8140754e-19
1.7968569e-19
1.975305e-15
1.3165647e-14
5.5231185e-12
1.0846833e-11
3.0686814e-11
2.0647051e-11
7.8870327e-11
2.6074076e-10
1.494606e-09
6.0260526e-09
3.1890142e-08
2.034467e-07
9.8545053e-07
3.0504843e-06
7.1544184e-06
1.3478853e-05
2.2176919e-05
3.3575038e-05
4.7962235e-05
6.6031208e-05
1.4154351e-20
4.148553e-20
8.4749347e-20
1.0815141e-19
1.4441455e-19
1.4910967e-19
1.6257625e-19
5.8972514e-17
8.1079653e-15
1.9345039e-14
1.217176e-11
3.1798374e-11
2.87661e-11
7.1890163e-11
1.5305974e-10
8.5659011e-10
2.7131355e-09
1.0946474e-08
5.0916902e-08
2.4524449e-07
9.2793994e-07
2.4120685e-06
5.266959e-06
9.7080375e-06
1.5931907e-05
2.4395226e-05
3.566018e-05
5.0633236e-05
1.1659254e-20
3.1877525e-20
6.2807951e-20
9.5889979e-20
1.1424264e-19
1.363929e-19
1.3900295e-19
3.8586529e-15
1.4111932e-14
7.4104705e-12
1.77673e-11
6.7099922e-11
3.4838233e-11
1.7336875e-10
3.4603619e-10
1.8562837e-09
4.9307183e-09
1.7657134e-08
7.1961582e-08
2.616046e-07
8.1182974e-07
2.0069109e-06
4.0355522e-06
7.2994482e-06
1.2278308e-05
1.9281638e-05
2.8951617e-05
4.2072032e-05
8.6078605e-21
2.4471401e-20
3.7653147e-20
7.520461e-20
1.0139781e-19
1.1144937e-19
1.3045275e-15
8.9681094e-15
1.8222196e-14
1.7265289e-11
3.7012038e-11
9.1310401e-11
1.0318779e-10
3.0568123e-10
7.4136578e-10
3.0910584e-09
7.6492983e-09
2.6152629e-08
9.1566293e-08
2.7455084e-07
7.3543544e-07
1.702505e-06
3.4083154e-06
6.0935618e-06
1.0164224e-05
1.6172447e-05
2.4814748e-05
3.6693745e-05
3.3973912e-21
9.3413051e-21
3.2829978e-20
5.7746374e-20
7.95419e-20
9.2697389e-20
4.6829755e-15
1.3827817e-14
8.0248665e-12
2.9106516e-11
7.4898166e-11
8.5634314e-11
2.0332384e-10
4.5194307e-10
1.5680083e-09
4.6975225e-09
1.1889887e-08
3.466209e-08
1.1251107e-07
2.9086617e-07
6.8254136e-07
1.5128848e-06
2.9481258e-06
5.3031033e-06
8.9250769e-06
1.4248447e-05
2.1928168e-05
3.2806492e-05
2.460981e-21
5.2479121e-21
1.4142272e-20
4.487569e-20
6.452117e-20
2.1097282e-15
8.6928198e-15
1.5774122e-14
1.6814814e-11
3.9944381e-11
1.2936889e-10
1.0440516e-10
3.5206306e-10
6.3866844e-10
2.5145043e-09
6.3556805e-09
1.6201521e-08
4.3368616e-08
1.2989057e-07
3.093e-07
6.6273932e-07
1.4010274e-06
2.6753762e-06
4.7578181e-06
8.0157802e-06
1.2954755e-05
1.9955505e-05
2.9842075e-05
9.6771252e-22
1.2950777e-21
1.5014707e-20
3.3012895e-20
5.4904034e-16
4.4816386e-15
1.2047382e-14
5.2950162e-12
3.0580326e-11
5.9810641e-11
1.5863889e-10
2.0519974e-10
5.3611636e-10
9.321305e-10
3.6494697e-09
8.7635861e-09
2.0130961e-08
5.3931336e-08
1.4431579e-07
3.2346358e-07
6.5744369e-07
1.3259471e-06
2.4957831e-06
4.384783e-06
7.3467131e-06
1.181061e-05
1.8372364e-05
2.7530965e-05
9.5812032e-22
2.1040255e-21
7.4784826e-21
2.0765085e-20
1.9367289e-15
6.8241097e-15
1.2047261e-14
1.4223775e-11
4.6367064e-11
1.0578778e-10
2.6001313e-10
3.3217386e-10
7.3280515e-10
1.5832163e-09
4.8250271e-09
1.1466466e-08
2.4327373e-08
6.3036935e-08
1.566265e-07
3.3569497e-07
6.5867372e-07
1.2837285e-06
2.3679817e-06
4.1241675e-06
6.8503942e-06
1.0957849e-05
1.6938709e-05
2.5406124e-05
9.2884287e-22
1.0831427e-21
4.5507678e-21
4.163374e-16
2.7453395e-15
8.6817559e-15
8.6725008e-15
2.6622902e-11
5.8205916e-11
1.6433234e-10
2.8796065e-10
4.626788e-10
9.5667158e-10
2.2760537e-09
5.919631e-09
1.401247e-08
2.9059622e-08
7.0605618e-08
1.6713411e-07
3.4666427e-07
6.6430247e-07
1.2632052e-06
2.2828654e-06
3.9314971e-06
6.4801698e-06
1.028399e-05
1.5803184e-05
2.3564786e-05
9.6990014e-22
1.125447e-21
4.451761e-21
7.2498605e-16
4.0859909e-15
7.7522346e-15
9.449799e-12
3.6493025e-11
7.7710734e-11
3.3247309e-10
2.5440588e-10
6.2735618e-10
1.172409e-09
2.9904442e-09
7.0441071e-09
1.6397677e-08
3.3303964e-08
7.7297429e-08
1.7611864e-07
3.5668411e-07
6.6983931e-07
1.2496107e-06
2.2211651e-06
3.7877805e-06
6.1838192e-06
9.7418661e-06
1.4856246e-05
2.2016742e-05
1.0187547e-21
1.1264828e-21
2.3024085e-17
1.0776424e-15
4.119703e-15
3.8705381e-15
1.7620142e-11
4.9426973e-11
1.0745932e-10
4.964233e-10
3.8494429e-10
8.2793779e-10
1.6273905e-09
3.7238304e-09
8.5805125e-09
1.8604225e-08
3.7118667e-08
8.5298254e-08
1.8320987e-07
3.651166e-07
6.7383847e-07
1.2376005e-06
2.1695393e-06
3.6703234e-06
5.9359473e-06
9.275327e-06
1.4049952e-05
2.0668328e-05
1.0825915e-21
1.2096972e-21
7.4059204e-17
1.1295217e-15
2.7651995e-15
3.2361245e-15
2.594385e-11
6.4654315e-11
2.3932193e-10
6.2701542e-10
5.2443196e-10
1.0411739e-09
2.0723849e-09
4.4169208e-09
1.0143979e-08
2.0547785e-08
4.0695516e-08
9.1384115e-08
1.8764831e-07
3.7050646e-07
6.7594837e-07
1.2216263e-06
2.1170549e-06
3.5593284e-06
5.7157457e-06
8.8598175e-06
1.3326748e-05
1.9485256e-05
1.1741863e-21
1.4152815e-21
9.4325429e-17
7.6867738e-16
1.7002883e-15
6.2372151e-12
3.5332614e-11
9.1985956e-11
4.2502879e-10
6.8590989e-10
6.6671257e-10
1.2814751e-09
2.5012134e-09
5.0701938e-09
1.1599023e-08
2.229893e-08
4.3939607e-08
9.6034905e-08
1.9019591e-07
3.7348074e-07
6.7544717e-07
1.2013481e-06
2.0622811e-06
3.4512885e-06
5.5099152e-06
8.4876027e-06
1.2675067e-05
1.8484135e-05
1.279716e-21
1.6794226e-21
5.3337078e-17
2.8821181e-16
1.2861596e-15
1.049478e-11
4.6052759e-11
1.7931839e-10
6.5489227e-10
6.4623208e-10
8.5063828e-10
1.7309076e-09
2.9092961e-09
5.7108598e-09
1.2975735e-08
2.4793018e-08
4.6745829e-08
9.9958007e-08
1.9374907e-07
3.749526e-07
6.7393582e-07
1.1832978e-06
2.0119134e-06
3.3521697e-06
5.3239922e-06
8.1541449e-06
1.2096931e-05
1.7632191e-05
1.3958019e-21
1.9929752e-21
1.3619059e-17
2.4219514e-16
8.7057054e-16
1.4256334e-11
6.7336302e-11
2.6930698e-10
8.8297291e-10
5.3293853e-10
1.0053206e-09
2.1356568e-09
3.3025381e-09
6.6456271e-09
1.417579e-08
2.7035731e-08
4.9268226e-08
1.0312653e-07
1.9785292e-07
3.743787e-07
6.7073138e-07
1.1666172e-06
1.9673288e-06
3.2629447e-06
5.1570757e-06
7.855074e-06
1.1578857e-05
1.6883609e-05
1.6059542e-21
1.9294558e-20
1.2514472e-17
1.7903673e-16
5.1863121e-16
1.8012121e-11
1.1477126e-10
3.7394691e-10
1.0353891e-09
6.1542729e-10
1.1553359e-09
2.5203048e-09
3.6790084e-09
7.4663887e-09
1.5129757e-08
2.890877e-08
5.1214797e-08
1.0541086e-07
2.0045563e-07
3.7155506e-07
6.6436551e-07
1.1456295e-06
1.9231648e-06
3.173806e-06
4.9941801e-06
7.5697767e-06
1.1102741e-05
1.6199477e-05
1.8891336e-21
2.1520063e-19
1.0544452e-17
1.1611853e-16
2.3211637e-16
3.2014817e-11
1.6716579e-10
5.1060027e-10
1.1668205e-09
7.3799727e-10
1.4760149e-09
2.8910226e-09
4.0482453e-09
8.202694e-09
1.5896269e-08
3.0496939e-08
5.2519193e-08
1.0666352e-07
2.0148653e-07
3.6671606e-07
6.5504579e-07
1.1188184e-06
1.8749381e-06
3.0804142e-06
4.8295918e-06
7.2877981e-06
1.0703239e-05
1.5553863e-05
2.1896661e-21
3.4172878e-19
8.3174283e-18
6.2057784e-17
3.3187662e-17
5.2612533e-11
2.2094489e-10
6.7085464e-10
1.270093e-09
8.5657532e-10
1.7940085e-09
3.2499784e-09
4.4113531e-09
8.8820646e-09
1.6526954e-08
3.1839023e-08
5.3334656e-08
1.07187e-07
2.010875e-07
3.599685e-07
6.4323394e-07
1.0868245e-06
1.8222414e-06
2.9877115e-06
4.6648808e-06
7.0100164e-06
1.0316921e-05
1.4941254e-05
2.505839e-21
4.1446815e-19
6.107737e-18
2.0693235e-17
3.0243328e-17
7.5424308e-11
2.784308e-10
8.4872031e-10
1.3458672e-09
1.0539213e-09
2.1325915e-09
3.6032665e-09
4.9621687e-09
9.5196944e-09
1.7094976e-08
3.2979169e-08
5.4769495e-08
1.0704424e-07
1.9936392e-07
3.5217727e-07
6.2876693e-07
1.0496249e-06
1.7647802e-06
2.8935093e-06
4.5006631e-06
6.7379456e-06
9.9440809e-06
1.4360099e-05
2.8390312e-21
4.4637097e-19
4.0499824e-18
1.1941889e-17
2.7728973e-17
1.0115328e-10
3.4246257e-10
1.0454759e-09
1.4003e-09
1.364154e-09
2.465177e-09
3.9516692e-09
5.6290043e-09
1.0089741e-08
1.7937411e-08
3.3913368e-08
5.6534148e-08
1.0651931e-07
1.9698653e-07
3.4450537e-07
6.1304299e-07
1.0204037e-06
1.704058e-06
2.7981354e-06
4.3453089e-06
6.4750113e-06
9.5839551e-06
1.3806695e-05
3.1930225e-21
4.5709378e-19
3.6785015e-18
1.1542106e-17
3.592612e-12
1.2988609e-10
4.1578051e-10
1.2639495e-09
1.4560135e-09
1.6704009e-09
2.7927598e-09
4.2924803e-09
6.2878309e-09
1.0580173e-08
1.8733625e-08
3.4618695e-08
5.8015481e-08
1.0563067e-07
1.9441304e-07
3.3687852e-07
5.973011e-07
9.9395501e-07
1.6428462e-06
2.7039263e-06
4.1958928e-06
6.2247131e-06
9.2405802e-06
1.3284161e-05
4.7255828e-21
5.2040833e-19
3.7153724e-18
1.0984627e-17
9.234614e-12
1.612015e-10
5.0184146e-10
1.4959586e-09
1.7736425e-09
1.9692129e-09
3.1208092e-09
4.6281404e-09
6.9411077e-09
1.1012412e-08
1.9411307e-08
3.513707e-08
5.9233973e-08
1.0427838e-07
1.9118697e-07
3.2841719e-07
5.8033984e-07
9.6688573e-07
1.5808051e-06
2.6106088e-06
4.0515186e-06
6.0062322e-06
8.9162495e-06
1.2791996e-05
6.5958768e-21
5.6832992e-19
3.7020787e-18
1.0355825e-17
1.4812353e-11
1.9361916e-10
5.9490443e-10
1.7639877e-09
2.0702352e-09
2.2608329e-09
3.4346385e-09
5.2246663e-09
7.5842731e-09
1.1409055e-08
2.0208145e-08
3.5505219e-08
6.020159e-08
1.0229165e-07
1.8793508e-07
3.2025584e-07
5.6418867e-07
9.3815681e-07
1.5164766e-06
2.5170108e-06
3.9092609e-06
5.8126643e-06
8.6104465e-06
1.232624e-05
8.541877e-21
6.0293298e-19
3.6605403e-18
9.7290364e-18
2.0578972e-11
2.2916989e-10
6.8870313e-10
2.4376998e-09
2.3619778e-09
2.5465576e-09
3.7302592e-09
5.8723905e-09
8.212489e-09
1.1760977e-08
2.0934088e-08
3.5755882e-08
6.102905e-08
1.0024982e-07
1.8496499e-07
3.1389925e-07
5.4970155e-07
9.1115682e-07
1.4536695e-06
2.4255687e-06
3.7710387e-06
5.6253852e-06
8.3255822e-06
1.1885178e-05
1.0545601e-20
6.2596939e-19
3.5881613e-18
9.1030337e-18
2.6305334e-11
2.6443244e-10
8.5501067e-10
3.0477861e-09
2.6575357e-09
2.8237936e-09
4.0099361e-09
6.5063145e-09
8.8269495e-09
1.2225966e-08
2.160981e-08
3.5915686e-08
6.1751793e-08
9.7985396e-08
1.8203797e-07
3.0759602e-07
5.3529774e-07
8.8435274e-07
1.4050524e-06
2.3359479e-06
3.6373641e-06
5.4446887e-06
8.0551e-06
1.1480297e-05
1.2597413e-20
6.3989469e-19
3.4943644e-18
8.4943051e-18
3.2740392e-11
2.9957666e-10
1.2017548e-09
3.618513e-09
2.9419747e-09
3.0949912e-09
4.4523069e-09
7.1318714e-09
9.431738e-09
1.2905294e-08
2.2216141e-08
3.602127e-08
6.2330873e-08
9.6661936e-08
1.7843668e-07
3.0163423e-07
5.1858147e-07
8.591333e-07
1.36102e-06
2.2456669e-06
3.5064017e-06
5.2690831e-06
7.7973306e-06
1.1099041e-05
1.469682e-20
6.4723099e-19
3.3854965e-18
7.9154909e-18
3.8704321e-11
4.2050148e-10
1.5565558e-09
4.1783144e-09
3.2188852e-09
3.3591234e-09
5.0628574e-09
7.7434592e-09
1.002924e-08
1.3525297e-08
2.2737026e-08
3.6703708e-08
6.2691766e-08
9.7736412e-08
1.7455635e-07
2.9648804e-07
5.0303102e-07
8.3718453e-07
1.319134e-06
2.1585842e-06
3.3810252e-06
5.1004101e-06
7.5514033e-06
1.0738884e-05
1.6834414e-20
6.4854166e-19
3.2627415e-18
7.3561343e-18
4.9955264e-11
5.7856194e-10
1.9177267e-09
4.7292363e-09
3.49368e-09
3.6164053e-09
5.6632121e-09
8.342499e-09
1.0616779e-08
1.4094613e-08
2.3171989e-08
3.7139219e-08
6.2807755e-08
9.8526367e-08
1.704062e-07
2.9139999e-07
4.8859748e-07
8.1675983e-07
1.2791156e-06
2.0751765e-06
3.2621132e-06
4.9402942e-06
7.3195928e-06
1.0401163e-05
1.900234e-20
6.4462559e-19
3.1287417e-18
6.8504839e-18
7.727514e-11
7.3710608e-10
2.2879875e-09
5.2710466e-09
3.7749107e-09
4.161251e-09
6.2485599e-09
8.9362054e-09
1.1203541e-08
1.4711976e-08
2.3518526e-08
3.734513e-08
6.2705593e-08
9.9112753e-08
1.6594136e-07
2.8573292e-07
4.7505477e-07
7.9403228e-07
1.2414333e-06
1.9916639e-06
3.1468611e-06
4.7865127e-06
7.1000218e-06
1.0084028e-05
2.1191326e-20
6.3604496e-19
3.0140107e-18
7.2402485e-18
1.0403045e-10
8.9616147e-10
2.6658913e-09
5.8051677e-09
4.0669471e-09
4.7995298e-09
6.8170504e-09
9.5128347e-09
1.2242163e-08
1.5746935e-08
2.3856126e-08
3.7776696e-08
6.2334435e-08
9.963004e-08
1.6079152e-07
2.7976654e-07
4.6282693e-07
7.7124961e-07
1.2080315e-06
1.9341574e-06
3.0367885e-06
4.6398143e-06
6.8927055e-06
9.7867211e-06
2.6291367e-20
6.6049653e-19
3.1392532e-18
7.5863629e-18
1.3010327e-10
1.0560203e-09
3.0562282e-09
6.3341527e-09
4.6199985e-09
5.4284235e-09
7.3889034e-09
1.0078728e-08
1.327658e-08
1.6775121e-08
2.4185902e-08
3.8500758e-08
6.1774544e-08
9.9816898e-08
1.5513045e-07
2.7341573e-07
4.5097961e-07
7.504079e-07
1.1771615e-06
1.8807598e-06
2.9328625e-06
4.5009927e-06
6.6982709e-06
9.5096438e-06
4.2123273e-20
7.2016166e-19
3.2526264e-18
7.9277657e-18
1.5473921e-10
1.2166929e-09
3.4612339e-09
6.8577266e-09
5.475906e-09
6.0482459e-09
7.9990061e-09
1.0639846e-08
1.4309226e-08
1.780042e-08
2.459411e-08
3.9197829e-08
6.1124996e-08
9.9823237e-08
1.5340145e-07
2.6661871e-07
4.3863168e-07
7.3067744e-07
1.1438756e-06
1.8304253e-06
2.8307771e-06
4.3667195e-06
6.5139662e-06
9.2504037e-06
5.8097147e-20
7.7744032e-19
3.3555479e-18
8.2435371e-18
1.7740449e-10
1.382068e-09
3.865108e-09
7.8650133e-09
6.368029e-09
6.6655654e-09
8.6080882e-09
1.1433687e-08
1.5350324e-08
1.8827384e-08
2.5466803e-08
3.9847161e-08
6.0457566e-08
9.9742723e-08
1.5172583e-07
2.5976436e-07
4.2610737e-07
7.1315018e-07
1.1113919e-06
1.7864002e-06
2.732233e-06
4.2377074e-06
6.3399305e-06
9.0088201e-06
7.4197519e-20
8.3276999e-19
3.4490371e-18
8.5347109e-18
1.9753892e-10
1.5520058e-09
4.2624307e-09
9.2261891e-09
7.2964834e-09
7.2827145e-09
9.2152316e-09
1.2498156e-08
1.6392308e-08
1.9858327e-08
2.62789e-08
4.0454067e-08
5.9794612e-08
9.9608617e-08
1.5058824e-07
2.5321325e-07
4.1499076e-07
6.9801257e-07
1.0863387e-06
1.7483198e-06
2.6431191e-06
4.1190007e-06
6.1806227e-06
8.7888344e-06
9.0409263e-20
8.8646698e-19
3.5341572e-18
8.8014762e-18
2.1676681e-10
1.7135842e-09
5.2242737e-09
1.0609705e-08
8.2517188e-09
7.8974866e-09
9.8203228e-09
1.3565071e-08
1.7439483e-08
2.089519e-08
2.7061875e-08
4.1017828e-08
6.0002051e-08
9.9295143e-08
1.4981983e-07
2.4684158e-07
4.0497537e-07
6.8436131e-07
1.064808e-06
1.7109705e-06
2.5834671e-06
4.0075937e-06
6.0344321e-06
8.5893503e-06
1.0667997e-19
9.3796056e-19
3.6083549e-18
9.0392047e-18
2.296163e-10
2.030629e-09
6.1912911e-09
1.2011459e-08
9.2247578e-09
8.5081698e-09
1.0759665e-08
1.463612e-08
1.8493521e-08
2.1939224e-08
2.7999092e-08
4.1539974e-08
6.0872739e-08
9.872946e-08
1.5051455e-07
2.4006078e-07
3.9827511e-07
6.7083112e-07
1.0479069e-06
1.6700416e-06
2.5385191e-06
3.9026389e-06
5.9001539e-06
8.4173423e-06
1.2296895e-19
9.8738535e-19
3.6724973e-18
9.2504414e-18
2.4828758e-10
2.4956799e-09
7.1439298e-09
1.3427811e-08
1.0213704e-08
9.1138087e-09
1.1959526e-08
1.5712066e-08
1.9548244e-08
2.3504174e-08
2.8996985e-08
4.2006892e-08
6.2090628e-08
9.7916919e-08
1.5145644e-07
2.3699636e-07
3.927944e-07
6.5846523e-07
1.0345142e-06
1.6367501e-06
2.5038961e-06
3.8123156e-06
5.783848e-06
8.2676417e-06
1.3921175e-19
1.0345197e-18
3.7257563e-18
9.7541138e-18
2.9675911e-10
2.9423937e-09
8.0869819e-09
1.4856511e-08
1.1226966e-08
9.8460977e-09
1.3169366e-08
1.6791409e-08
2.0595325e-08
2.5198366e-08
3.0611906e-08
4.2475244e-08
6.3163595e-08
9.6826902e-08
1.5208189e-07
2.3530563e-07
3.8753408e-07
6.46963e-07
1.0229687e-06
1.6069785e-06
2.4743125e-06
3.7290584e-06
5.6800581e-06
8.1337064e-06
1.5536173e-19
1.0792934e-18
4.0205045e-18
1.1930067e-17
3.2658255e-10
3.3750209e-09
9.0212238e-09
1.6287663e-08
1.2279542e-08
1.1130156e-08
1.4388274e-08
1.7884462e-08
2.1651172e-08
2.6921335e-08
3.2245433e-08
4.2997909e-08
6.4251895e-08
9.5713207e-08
1.5238264e-07
2.3479359e-07
3.8136084e-07
6.3590962e-07
1.0112071e-06
1.5818099e-06
2.4346413e-06
3.6578981e-06
5.5806306e-06
8.0082882e-06
2.256668e-19
1.3942006e-18
4.7598315e-18
1.3952441e-17
3.3815288e-10
3.7953458e-09
9.9581263e-09
1.772786e-08
1.3546182e-08
1.2422768e-08
1.5622303e-08
1.8980837e-08
2.2937584e-08
2.8675578e-08
3.3901671e-08
4.4018549e-08
6.5348096e-08
9.4589232e-08
1.5246159e-07
2.3405753e-07
3.7445132e-07
6.2491136e-07
1.0005345e-06
1.5606323e-06
2.401859e-06
3.6000411e-06
5.4951701e-06
7.8971963e-06
3.3509444e-19
1.7569386e-18
5.460883e-18
1.5836537e-17
3.3415735e-10
4.2109012e-09
1.0925235e-08
1.9179463e-08
1.5516248e-08
1.3727523e-08
1.6877911e-08
2.0075428e-08
2.4689136e-08
3.0384811e-08
3.5582497e-08
4.5362178e-08
6.6425899e-08
9.3464648e-08
1.5244614e-07
2.333381e-07
3.6763461e-07
6.1456438e-07
9.9144889e-07
1.5424688e-06
2.3751829e-06
3.5507801e-06
5.4225786e-06
7.8009614e-06
4.4450707e-19
2.1117292e-18
6.1280194e-18
1.7593692e-17
3.1454007e-10
4.6269679e-09
1.1882248e-08
2.1243307e-08
1.7561511e-08
1.5047118e-08
1.8152506e-08
2.1175078e-08
2.6463536e-08
3.2105048e-08
3.7286129e-08
4.6794437e-08
6.7478019e-08
9.3974716e-08
1.5241553e-07
2.3276721e-07
3.6127587e-07
6.0517703e-07
9.8385758e-07
1.5262807e-06
2.3536589e-06
3.5096752e-06
5.3600693e-06
7.7171911e-06
5.5401171e-19
2.458942e-18
6.7621265e-18
1.9223872e-17
2.7825008e-10
5.0410693e-09
1.2879949e-08
2.386457e-08
1.9667718e-08
1.6384295e-08
1.9434387e-08
2.2640264e-08
2.8262815e-08
3.385017e-08
3.9018015e-08
4.8426039e-08
6.8504792e-08
9.6197776e-08
1.5230392e-07
2.3240352e-07
3.6091344e-07
5.9672555e-07
9.7793954e-07
1.5115331e-06
2.3397252e-06
3.4688972e-06
5.3151412e-06
7.6517297e-06
6.6379769e-19
2.7998663e-18
7.3677667e-18
2.0738844e-17
2.3044495e-10
5.427737e-09
1.4582237e-08
2.6554773e-08
2.1810449e-08
1.7739777e-08
2.0714223e-08
2.4531063e-08
3.0088388e-08
3.559977e-08
4.1232417e-08
5.0040468e-08
6.9462531e-08
9.8560697e-08
1.520736e-07
2.3199695e-07
3.6410747e-07
5.8885482e-07
9.7486663e-07
1.5011222e-06
2.333453e-06
3.4405871e-06
5.2889218e-06
7.6079461e-06
7.7369748e-19
3.1337065e-18
7.9417419e-18
2.2129367e-17
1.5293859e-10
6.1435017e-09
1.6226123e-08
2.9296673e-08
2.3992088e-08
1.9109816e-08
2.2086863e-08
2.6446495e-08
3.1940955e-08
3.735623e-08
4.3845142e-08
5.240688e-08
7.0464341e-08
1.0074643e-07
1.514227e-07
2.3390811e-07
3.6701811e-07
5.8147852e-07
9.7331761e-07
1.4936501e-06
2.3323031e-06
3.4200685e-06
5.2753309e-06
7.5821998e-06
8.8350429e-19
3.4594858e-18
8.5446371e-18
2.3380888e-17
4.9855379e-11
6.9058922e-09
1.7843813e-08
3.2077709e-08
2.6191805e-08
2.0464299e-08
2.4268891e-08
2.8383322e-08
3.3827574e-08
3.9138478e-08
4.6498831e-08
5.4888023e-08
7.1560238e-08
1.0292114e-07
1.5054531e-07
2.3659408e-07
3.6970415e-07
5.7616475e-07
9.7261373e-07
1.4880579e-06
2.3342299e-06
3.4063375e-06
5.2652292e-06
7.5685512e-06
9.9330377e-19
3.7781981e-18
9.3538257e-18
3.0092889e-17
9.6157735e-17
7.6243968e-09
1.9457719e-08
3.4889942e-08
2.8424955e-08
2.1937039e-08
2.6483696e-08
3.0466673e-08
3.5749101e-08
4.1167e-08
4.9194371e-08
5.7411792e-08
7.2870583e-08
1.0514745e-07
1.496654e-07
2.3916275e-07
3.7230198e-07
5.7672483e-07
9.7170645e-07
1.4921607e-06
2.3362364e-06
3.4212025e-06
5.241204e-06
7.5756051e-06
1.3364512e-18
5.0370685e-18
1.2682404e-17
3.7855119e-17
1.150216e-16
8.3105078e-09
2.1098413e-08
3.769324e-08
3.0692817e-08
2.4350101e-08
2.873211e-08
3.2595723e-08
3.7708904e-08
4.3828507e-08
5.1935059e-08
5.9977996e-08
7.524078e-08
1.0737498e-07
1.4903619e-07
2.4177651e-07
3.7509502e-07
5.778862e-07
9.715554e-07
1.5044887e-06
2.3411203e-06
3.4433033e-06
5.230587e-06
7.6010538e-06
1.9925721e-18
6.8233057e-18
1.5929989e-17
4.4830792e-17
1.3167476e-16
8.9649445e-09
2.2769411e-08
4.0519851e-08
3.3388811e-08
2.6795821e-08
3.1016265e-08
3.4756708e-08
3.9704357e-08
4.653106e-08
5.4721159e-08
6.2583877e-08
7.7630112e-08
1.0959714e-07
1.5134829e-07
2.4455037e-07
3.7788449e-07
5.8197618e-07
9.7145615e-07
1.5196553e-06
2.3497119e-06
3.4715042e-06
5.2290982e-06
7.6400201e-06
2.6479055e-18
8.5726872e-18
1.9101988e-17
5.10947e-17
1.4634458e-16
9.5938174e-09
2.4491574e-08
4.3366661e-08
3.665285e-08
2.9275984e-08
3.3338038e-08
3.695055e-08
4.2203764e-08
4.9275239e-08
5.7400953e-08
6.5235448e-08
8.0553995e-08
1.1184845e-07
1.5418554e-07
2.4730817e-07
3.8072786e-07
5.855824e-07
9.7119374e-07
1.5357022e-06
2.3601882e-06
3.5034356e-06
5.2325149e-06
7.6872731e-06
3.3039863e-18
1.0291978e-17
2.2213403e-17
5.7132791e-17
1.5936734e-16
1.0233609e-08
2.6190966e-08
4.7032897e-08
3.9980463e-08
3.1794936e-08
3.5696364e-08
3.9177402e-08
4.510281e-08
5.2060495e-08
6.0089621e-08
6.8438995e-08
8.3538227e-08
1.1411444e-07
1.5933837e-07
2.4990825e-07
3.8390849e-07
5.9481891e-07
9.7163225e-07
1.5527622e-06
2.3720304e-06
3.5369746e-06
5.2432918e-06
7.7210356e-06
3.961901e-18
1.198607e-17
2.5272764e-17
6.3432308e-17
1.7082681e-16
1.082182e-08
2.8170027e-08
5.0848576e-08
4.3316494e-08
3.4493315e-08
3.8089904e-08
4.1647334e-08
4.805037e-08
5.4890936e-08
6.2806785e-08
7.221906e-08
8.6549763e-08
1.1628759e-07
1.6428967e-07
2.5221083e-07
3.871818e-07
6.0710137e-07
9.730885e-07
1.5712855e-06
2.3861332e-06
3.5737357e-06
5.2646037e-06
7.7525503e-06
4.6215551e-18
1.3655193e-17
2.8278805e-17
6.943293e-17
1.8259036e-16
1.149288e-08
3.0274116e-08
5.4730728e-08
4.6634878e-08
3.7527715e-08
4.0518625e-08
4.4926985e-08
5.1039981e-08
5.7763415e-08
6.552814e-08
7.6029789e-08
9.0171258e-08
1.1854204e-07
1.6899388e-07
2.5391121e-07
3.9539904e-07
6.1922566e-07
9.7552601e-07
1.5912686e-06
2.4026105e-06
3.6146377e-06
5.2929125e-06
7.7962366e-06
5.2828058e-18
1.5297727e-17
3.1226081e-17
7.5106929e-17
2.3011232e-16
1.223756e-08
3.2348739e-08
5.8454366e-08
4.9932584e-08
4.0535435e-08
4.3232252e-08
4.8254217e-08
5.408101e-08
6.0681026e-08
6.8691466e-08
7.9878643e-08
9.3870582e-08
1.2104758e-07
1.7377704e-07
2.5545736e-07
4.0524545e-07
6.3123623e-07
9.7943826e-07
1.6128154e-06
2.4213695e-06
3.6589661e-06
5.3249884e-06
7.8462921e-06
5.9467117e-18
1.6916485e-17
3.586799e-17
9.9842782e-17
3.048533e-16
1.2929357e-08
3.4445042e-08
6.1783916e-08
5.3193945e-08
4.3541176e-08
4.6795402e-08
5.1627121e-08
5.7180496e-08
6.3649141e-08
7.242661e-08
8.3770104e-08
9.7621141e-08
1.2550626e-07
1.7859907e-07
2.5741502e-07
4.1553138e-07
6.4308631e-07
1.0010581e-06
1.6339694e-06
2.4444667e-06
3.7083366e-06
5.3624146e-06
7.9031e-06
8.3429062e-18
2.3324937e-17
5.0118354e-17
1.3020019e-16
3.758192e-16
1.3594148e-08
3.6584523e-08
6.5233179e-08
5.6466616e-08
4.7204431e-08
5.0414414e-08
5.5045606e-08
6.0334475e-08
6.6666126e-08
7.6211874e-08
8.7706155e-08
1.0141352e-07
1.2987434e-07
1.8340346e-07
2.5940013e-07
4.2575509e-07
6.5477728e-07
1.0240848e-06
1.6537199e-06
2.4841227e-06
3.7589342e-06
5.4019726e-06
7.9709589e-06
1.1921729e-17
3.1097194e-17
6.4101282e-17
1.5926358e-16
4.4349224e-16
1.4246823e-08
3.8790192e-08
6.8820781e-08
5.9778954e-08
5.1382789e-08
5.4086767e-08
5.8473903e-08
6.3542233e-08
7.0491728e-08
8.0040953e-08
9.1695042e-08
1.0526349e-07
1.342369e-07
1.8825114e-07
2.6185309e-07
4.3599516e-07
6.6659821e-07
1.0470173e-06
1.6727809e-06
2.537444e-06
3.8085257e-06
5.4801593e-06
8.0455198e-06
1.5526456e-17
3.881023e-17
7.7876134e-17
1.8728141e-16
5.0857506e-16
1.4918179e-08
4.1126459e-08
7.2485324e-08
6.3534779e-08
5.5558874e-08
5.7808292e-08
6.1921936e-08
6.6802651e-08
7.4524329e-08
8.3922646e-08
9.5733245e-08
1.1027121e-07
1.3860392e-07
1.9313894e-07
2.7108444e-07
4.4601431e-07
6.7895879e-07
1.070425e-06
1.6922043e-06
2.5911714e-06
3.8582863e-06
5.5687384e-06
8.1215067e-06
1.9167754e-17
4.6490822e-17
9.1502921e-17
2.144817e-16
5.7161766e-16
1.5632146e-08
4.3482189e-08
7.5815849e-08
6.7328153e-08
5.9700336e-08
6.1575086e-08
6.5415249e-08
7.0689406e-08
7.8612385e-08
8.7860364e-08
9.9821266e-08
1.1567741e-07
1.4287749e-07
1.9799708e-07
2.8199501e-07
4.5574926e-07
6.9149067e-07
1.0942155e-06
1.7121896e-06
2.645603e-06
3.9088787e-06
5.6582729e-06
8.1983785e-06
2.2853106e-17
5.4155427e-17
1.0501441e-16
2.4095522e-16
6.327872e-16
1.6318399e-08
4.5665487e-08
7.9002882e-08
7.1124273e-08
6.3813709e-08
6.5382426e-08
6.8950002e-08
7.5014372e-08
8.2753211e-08
9.1849792e-08
1.0395863e-07
1.2108594e-07
1.4814682e-07
2.0289572e-07
2.9289702e-07
4.651879e-07
7.1305024e-07
1.1177782e-06
1.7333229e-06
2.7012191e-06
3.9604879e-06
5.7485015e-06
8.2751193e-06
2.658644e-17
6.1811511e-17
1.184227e-16
2.6671266e-16
6.9155135e-16
1.6899736e-08
4.7711858e-08
8.2220701e-08
7.4904262e-08
6.7895926e-08
6.9233451e-08
7.3141123e-08
7.9404178e-08
8.6947235e-08
9.5887074e-08
1.0899978e-07
1.2648668e-07
1.5356323e-07
2.0951852e-07
3.0380777e-07
4.7459891e-07
7.399402e-07
1.1406459e-06
1.7589489e-06
2.7576477e-06
4.0138681e-06
5.8393781e-06
8.3494262e-06
3.0367462e-17
6.9456644e-17
1.3171732e-16
2.9690439e-16
9.2272243e-16
1.7391415e-08
4.9752686e-08
8.5520002e-08
7.8672696e-08
7.1960106e-08
7.312443e-08
7.768063e-08
8.3859795e-08
9.1194072e-08
9.9970895e-08
1.1401545e-07
1.318844e-07
1.5900396e-07
2.1819179e-07
3.1442694e-07
4.8393619e-07
7.6675018e-07
1.1618175e-06
1.8077019e-06
2.8121179e-06
4.0699647e-06
5.9329712e-06
8.4257025e-06
3.5238722e-17
8.3915905e-17
1.7413617e-16
4.229055e-16
1.2067346e-15
1.7848691e-08
5.1839633e-08
8.893541e-08
8.2410823e-08
7.604669e-08
7.7952334e-08
8.22708e-08
8.8367537e-08
9.5492056e-08
1.0452086e-07
1.1900514e-07
1.3732395e-07
1.6453783e-07
2.2678543e-07
3.2466872e-07
4.9266071e-07
7.9284125e-07
1.1877715e-06
1.8644512e-06
2.8634779e-06
4.129472e-06
6.0276315e-06
8.5046942e-06
5.5101525e-17
1.2319814e-16
2.4048638e-16
5.4537993e-16
1.4798397e-15
1.8286891e-08
5.3977285e-08
9.246992e-08
8.6177415e-08
8.0512284e-08
8.2849067e-08
8.6908384e-08
9.2892904e-08
9.9839206e-08
1.0957891e-07
1.2400029e-07
1.4281301e-07
1.7120629e-07
2.3545394e-07
3.3491668e-07
5.0750365e-07
8.183179e-07
1.2171581e-06
1.9205734e-06
2.9118063e-06
4.2346012e-06
6.1227045e-06
8.5857906e-06
7.5200401e-17
1.6239982e-16
3.0639251e-16
6.6478992e-16
1.7434698e-15
1.8731414e-08
5.6205451e-08
9.6140072e-08
8.9903549e-08
8.5304399e-08
8.779838e-08
9.1591333e-08
9.7461211e-08
1.0447969e-07
1.1467765e-07
1.2902639e-07
1.4832572e-07
1.7950785e-07
2.4400746e-07
3.4511389e-07
5.2664737e-07
8.430745e-07
1.2465158e-06
1.976153e-06
2.9587147e-06
4.3379327e-06
6.218845e-06
8.7298337e-06
9.5574572e-17
2.0160068e-16
3.7200973e-16
7.8174491e-16
1.9995191e-15
1.9216192e-08
5.8576132e-08
9.9822383e-08
9.3393455e-08
9.0094848e-08
9.2791401e-08
9.6319141e-08
1.0207599e-07
1.0964366e-07
1.1981468e-07
1.3408677e-07
1.5387311e-07
1.8772474e-07
2.5242071e-07
3.5520369e-07
5.4498794e-07
8.6714875e-07
1.2789422e-06
2.0310448e-06
3.0044595e-06
4.4391296e-06
6.3110424e-06
8.8774725e-06
1.1627268e-16
2.4089887e-16
4.3752394e-16
8.969208e-16
2.2499734e-15
1.9780276e-08
6.0942181e-08
1.0188108e-07
9.6910415e-08
9.4871164e-08
9.7817044e-08
1.010953e-07
1.0702849e-07
1.1485643e-07
1.2499928e-07
1.3926248e-07
1.6074874e-07
1.9585906e-07
2.608596e-07
3.671898e-07
5.6312654e-07
8.9052062e-07
1.334555e-06
2.084062e-06
3.0504111e-06
4.5395953e-06
6.4016075e-06
9.0222631e-06
1.3732841e-16
2.8035647e-16
5.0302971e-16
1.0105049e-15
2.4947901e-15
2.0218948e-08
6.2100106e-08
1.0386657e-07
1.0041762e-07
9.9647477e-08
1.0287047e-07
1.0591864e-07
1.1239204e-07
1.2012588e-07
1.3023245e-07
1.4450612e-07
1.6800962e-07
2.0393584e-07
2.6911447e-07
3.8567669e-07
5.8024377e-07
9.1365492e-07
1.3893823e-06
2.1354591e-06
3.1039271e-06
4.6393743e-06
6.4928255e-06
9.1668338e-06
1.5874672e-16
3.1996253e-16
5.6846173e-16
1.1219939e-15
3.0394358e-15
2.0185937e-08
6.3196504e-08
1.0590333e-07
1.0392083e-07
1.0443692e-07
1.079755e-07
1.1115965e-07
1.1779281e-07
1.2545007e-07
1.3551106e-07
1.5022626e-07
1.7521654e-07
2.1197367e-07
2.7725159e-07
4.0371404e-07
5.9661223e-07
9.3656704e-07
1.4442179e-06
2.1832756e-06
3.2118665e-06
4.73313e-06
6.5861796e-06
9.3123159e-06
1.8052634e-16
3.6324535e-16
7.0132572e-16
1.5214263e-15
4.1215017e-15
2.010426e-08
6.4307329e-08
1.0801365e-07
1.0743038e-07
1.0925885e-07
1.1321139e-07
1.165556e-07
1.2323135e-07
1.3082791e-07
1.4083423e-07
1.565412e-07
1.8237447e-07
2.1999154e-07
2.8750291e-07
4.2148377e-07
6.1237935e-07
9.6909558e-07
1.4977592e-06
2.2288333e-06
3.3161851e-06
4.8206486e-06
6.6991428e-06
9.4518929e-06
2.7108835e-16
5.3735047e-16
9.8051777e-16
2.0049545e-15
5.168933e-15
2.0022287e-08
6.5476049e-08
1.1023682e-07
1.1095341e-07
1.1412357e-07
1.186826e-07
1.2200029e-07
1.2871028e-07
1.3626252e-07
1.4644211e-07
1.6287146e-07
1.8952126e-07
2.279213e-07
3.0104781e-07
4.3873338e-07
6.2716238e-07
1.0128028e-06
1.5493792e-06
2.272896e-06
3.4185697e-06
4.9021965e-06
6.8611316e-06
9.5818391e-06
3.7115078e-16
7.120988e-16
1.2594922e-15
2.4798989e-15
6.1868862e-15
1.9973277e-08
6.6740323e-08
1.126387e-07
1.1452397e-07
1.1881242e-07