/*--------------------------------*- C++ -*----------------------------------*\
  =========                 |
  \\      /  F ield         | OpenFOAM: The Open Source CFD Toolbox
   \\    /   O peration     | Website:  https://openfoam.org
    \\  /    A nd           | Version:  7
     \\/     M anipulation  |
\*---------------------------------------------------------------------------*/
FoamFile
{
    version     2.0;
    format      ascii;
    class       volScalarField;
    location    "50000";
    object      YOH;
}
// * * * * * * * * * * * * * * * * * * * * * * * * * * * * * * * * * * * * * //

dimensions      [0 0 0 0 0 0 0];

internalField   nonuniform List<scalar> 
113400
(
2.6677882e-13
2.6677882e-13
2.6677883e-13
2.6677886e-13
2.4126861e-13
2.3335034e-13
2.2156573e-13
2.0294347e-13
1.7240501e-13
1.1823425e-13
1.0314746e-13
1.1005398e-13
3.0507922e-13
1.8541748e-12
2.664149e-12
2.7365925e-12
1.1770531e-11
1.054986e-10
5.8185708e-10
1.0249808e-08
4.2171569e-07
1.1330628e-05
8.674182e-05
0.00016521769
0.00025841466
0.00018586649
1.7826306e-05
1.9081762e-05
2.6099794e-13
2.5588727e-13
2.4757001e-13
2.3819107e-13
2.2275218e-13
2.0182107e-13
1.7500371e-13
1.4002977e-13
1.3971069e-13
1.3735616e-13
1.47116e-13
1.1763762e-12
5.4520062e-12
5.0496138e-12
2.2359794e-12
2.1082754e-11
8.9780744e-11
6.990775e-10
4.530138e-09
7.3892345e-08
1.5138771e-06
1.541505e-05
6.9722367e-05
0.00017461216
0.00030054282
0.00041927213
0.00053485742
0.00065793164
2.6065058e-13
2.518637e-13
2.3702198e-13
2.1849531e-13
1.9592386e-13
1.671824e-13
1.4867979e-13
1.5076614e-13
1.5365558e-13
1.7017349e-13
8.4027997e-13
3.2864001e-12
9.2077433e-12
1.9679381e-11
8.8243984e-12
6.3528849e-11
3.1759483e-10
2.4296754e-09
2.7850891e-08
3.6050932e-07
3.6045595e-06
1.8055229e-05
5.6433944e-05
0.00012191342
0.00020214985
0.00028842321
0.0003732165
0.00046051245
2.5997315e-13
2.4784911e-13
2.275187e-13
2.0140291e-13
1.7356303e-13
1.5889033e-13
1.5670946e-13
1.6253958e-13
1.7462754e-13
6.2668289e-13
2.3394707e-12
1.4989761e-11
3.5733023e-11
1.3040532e-11
7.2649592e-11
2.084602e-10
1.8082108e-09
9.7549793e-09
1.0781255e-07
1.0094998e-06
5.6291305e-06
1.9439418e-05
4.5885914e-05
8.4692779e-05
0.0001331559
0.00018908686
0.00025006343
0.0003184676
2.5979797e-13
2.4526352e-13
2.2171677e-13
1.9529979e-13
1.8001688e-13
1.6907404e-13
1.7307691e-13
1.8003144e-13
3.5964952e-13
1.4621171e-12
1.524217e-11
2.6219935e-11
7.1769878e-11
4.9780931e-11
1.9165077e-10
6.8451703e-10
5.0726384e-09
3.1808063e-08
2.3199578e-07
1.3985232e-06
5.7071186e-06
1.5778161e-05
3.3741037e-05
5.9021637e-05
9.195669e-05
0.00013354443
0.00018492728
0.00024799282
2.6072526e-13
2.4593552e-13
2.226184e-13
2.1039247e-13
1.9155839e-13
1.9079074e-13
1.8787636e-13
2.1502209e-13
9.4308479e-13
2.4967011e-12
2.995443e-11
7.458057e-11
6.8016027e-11
1.7205574e-10
3.8878234e-10
2.6354388e-09
1.0759157e-08
6.7647873e-08
3.8435933e-07
1.7224714e-06
5.6007994e-06
1.3274188e-05
2.675085e-05
4.6419155e-05
7.2719762e-05
0.00010677424
0.00015060059
0.00020693573
2.6286631e-13
2.5203446e-13
2.3564911e-13
2.18496e-13
2.1010603e-13
2.0159481e-13
2.1272058e-13
5.6341514e-13
1.7603843e-12
2.0058255e-11
4.2467652e-11
1.560536e-10
8.3197941e-11
4.324319e-10
9.4941095e-10
6.7552254e-09
2.4961913e-08
1.230386e-07
5.5322739e-07
1.8850624e-06
5.186517e-06
1.1531807e-05
2.1785323e-05
3.7370862e-05
5.97664e-05
9.0002879e-05
0.0001301648
0.00018262515
2.6567434e-13
2.5734163e-13
2.5093521e-13
2.3188681e-13
2.2050906e-13
2.2325607e-13
3.5309853e-13
1.1405371e-12
2.6953134e-12
4.2565411e-11
8.7078873e-11
2.1260549e-10
2.4760048e-10
8.0969224e-10
2.2712258e-09
1.2635575e-08
4.3406373e-08
1.9472985e-07
7.1461829e-07
2.0231355e-06
4.9238855e-06
1.0357105e-05
1.9155221e-05
3.2475222e-05
5.1832698e-05
7.904389e-05
0.00011623616
0.00016529411
2.7014307e-13
2.6740846e-13
2.5580922e-13
2.4459767e-13
2.3854613e-13
2.5307612e-13
6.9994012e-13
1.9458401e-12
2.2152393e-11
6.9852513e-11
1.7466445e-10
2.0310937e-10
5.0836253e-10
1.2586265e-09
5.6590699e-09
2.2627841e-08
7.7747825e-08
2.6779864e-07
8.9125942e-07
2.184978e-06
4.7502811e-06
9.6408391e-06
1.7438151e-05
2.9365526e-05
4.6910101e-05
7.183475e-05
0.00010623528
0.00015244675
2.7292199e-13
2.721631e-13
2.6917034e-13
2.5682123e-13
2.5944444e-13
4.7187541e-13
1.2424756e-12
2.7490419e-12
4.1918206e-11
9.4285373e-11
3.0064662e-10
2.5007515e-10
9.2304328e-10
1.9277102e-09
9.8631567e-09
3.3214414e-08
1.1409046e-07
3.4331261e-07
1.039944e-06
2.3629069e-06
4.7474815e-06
9.2539924e-06
1.6464354e-05
2.7464234e-05
4.3641621e-05
6.6871279e-05
9.8982649e-05
0.00014237157
2.7693886e-13
2.788927e-13
2.7339559e-13
2.7219045e-13
3.4253772e-13
7.7218997e-13
1.9856225e-12
1.5737042e-11
7.4181972e-11
1.4035567e-10
3.6903595e-10
5.0506927e-10
1.469765e-09
3.0317648e-09
1.6261887e-08
5.1103703e-08
1.4758061e-07
4.3437977e-07
1.1655886e-06
2.5102042e-06
4.8205957e-06
9.0137723e-06
1.5861479e-05
2.6192197e-05
4.1422159e-05
6.3111095e-05
9.3321626e-05
0.00013407363
2.8177872e-13
2.8506451e-13
2.843279e-13
2.9598103e-13
5.1887339e-13
1.2206966e-12
2.5820581e-12
3.611249e-11
1.1048633e-10
2.4674264e-10
6.2474311e-10
8.4107103e-10
2.1073563e-09
5.7252425e-09
2.320888e-08
7.314494e-08
1.8376249e-07
5.1369393e-07
1.2752177e-06
2.642808e-06
4.9227333e-06
8.9347739e-06
1.5449781e-05
2.535211e-05
3.980121e-05
6.0376109e-05
8.8805159e-05
0.00012711664
2.8808711e-13
2.9278064e-13
2.9711932e-13
3.6899766e-13
7.2285574e-13
1.7712459e-12
2.9755769e-12
6.5426401e-11
1.3711356e-10
3.8224247e-10
7.020181e-10
1.2038671e-09
2.9069024e-09
8.7283522e-09
2.9765075e-08
9.4164716e-08
2.2529506e-07
5.8052063e-07
1.3709513e-06
2.7599245e-06
5.042893e-06
8.9650439e-06
1.5221814e-05
2.4744277e-05
3.8625854e-05
5.8202897e-05
8.5177341e-05
0.00012133178
2.9526662e-13
3.0078302e-13
3.1532241e-13
4.7597987e-13
1.0491414e-12
2.236738e-12
2.523582e-11
8.7818418e-11
1.8236257e-10
7.8105451e-10
6.1480955e-10
1.7038037e-09
3.6737134e-09
1.2028412e-08
3.6676371e-08
1.1407383e-07
2.6304355e-07
6.4041988e-07
1.4546837e-06
2.8634761e-06
5.1571492e-06
9.0202231e-06
1.5089761e-05
2.4319621e-05
3.7667629e-05
5.6446857e-05
8.2081877e-05
0.00011632508
3.0377959e-13
3.1144864e-13
3.5071373e-13
6.1225628e-13
1.3387453e-12
2.4194648e-12
4.4471397e-11
1.1723512e-10
2.512689e-10
1.1853477e-09
9.6154676e-10
2.305752e-09
5.4867223e-09
1.5994404e-08
4.7085119e-08
1.3267427e-07
2.9745645e-07
7.1271839e-07
1.5231956e-06
2.9539326e-06
5.2557435e-06
9.0705543e-06
1.4986905e-05
2.3984059e-05
3.6845076e-05
5.4855603e-05
7.9369363e-05
0.0001118007
3.1437964e-13
3.280282e-13
4.103701e-13
7.5024779e-13
1.5980418e-12
3.0828713e-12
6.3414772e-11
1.5261214e-10
5.6302119e-10
1.523521e-09
1.336238e-09
3.0080455e-09
7.3643878e-09
1.9765106e-08
5.869276e-08
1.4888579e-07
3.2992492e-07
7.6887459e-07
1.5700614e-06
3.0202561e-06
5.3194076e-06
9.0864942e-06
1.4858388e-05
2.3646054e-05
3.6097524e-05
5.3368334e-05
7.6792023e-05
0.00010769836
3.2840099e-13
3.5172864e-13
4.7981497e-13
8.9632935e-13
1.985586e-12
1.7863991e-11
8.501179e-11
2.1647095e-10
1.003605e-09
1.687758e-09
1.7202578e-09
3.8493779e-09
9.2096659e-09
2.3319321e-08
6.9443305e-08
1.633499e-07
3.5955237e-07
8.1285869e-07
1.6011371e-06
3.0670084e-06
5.3602169e-06
9.0674424e-06
1.4699168e-05
2.3293574e-05
3.5372217e-05
5.2006004e-05
7.4367296e-05
0.00010410769
3.4430443e-13
3.8100751e-13
5.4997141e-13
1.0762405e-12
2.3898407e-12
2.7700444e-11
1.0999128e-10
4.2311263e-10
1.5513096e-09
1.5971731e-09
2.2880484e-09
5.438881e-09
1.0972477e-08
2.687241e-08
7.9720029e-08
1.8525895e-07
3.8547687e-07
8.5068561e-07
1.6405602e-06
3.1009064e-06
5.3907034e-06
9.0319713e-06
1.4547448e-05
2.295973e-05
3.4700908e-05
5.0756777e-05
7.216596e-05
0.00010097962
3.6167928e-13
4.1508055e-13
6.5012417e-13
1.3418144e-12
2.7575659e-12
3.661018e-11
1.6028159e-10
6.3542632e-10
2.1036873e-09
1.317762e-09
2.7614495e-09
6.8878701e-09
1.2674573e-08
3.2340704e-08
8.863818e-08
2.0514545e-07
4.0920246e-07
8.8394624e-07
1.684664e-06
3.1173533e-06
5.4053121e-06
8.9855843e-06
1.4409946e-05
2.2648076e-05
3.4077597e-05
4.9599466e-05
7.0129961e-05
9.8157578e-05
3.8662554e-13
4.8049102e-13
7.843489e-13
1.604933e-12
3.1153483e-12
4.5488253e-11
2.7220714e-10
8.8205152e-10
2.494401e-09
1.5418518e-09
3.2143897e-09
8.2756363e-09
1.4281147e-08
3.7090612e-08
9.5281227e-08
2.2161183e-07
4.2779274e-07
9.1039315e-07
1.7159612e-06
3.1144963e-06
5.3932127e-06
8.9034124e-06
1.423244e-05
2.230873e-05
3.343121e-05
4.8443651e-05
6.8197908e-05
9.5494343e-05
4.1741307e-13
5.5510979e-13
9.2301804e-13
1.8677181e-12
3.4642747e-12
7.8718282e-11
3.9495232e-10
1.2050802e-09
2.8414039e-09
1.8710882e-09
4.2073188e-09
9.6144494e-09
1.5841105e-08
4.1250727e-08
1.0006298e-07
2.3527193e-07
4.4034161e-07
9.2776614e-07
1.7337807e-06
3.0941384e-06
5.3561823e-06
8.7781224e-06
1.4003875e-05
2.1923183e-05
3.2740877e-05
4.7251582e-05
6.6586885e-05
9.2902813e-05
4.4989622e-13
6.3403277e-13
1.0671368e-12
2.1357776e-12
3.9056341e-12
1.2699297e-10
5.2016286e-10
1.5848811e-09
3.1196659e-09
2.1897127e-09
5.1971065e-09
1.0907817e-08
1.736051e-08
4.5002308e-08
1.034789e-07
2.4633693e-07
4.4814873e-07
9.3851624e-07
1.7392322e-06
3.0570481e-06
5.2976549e-06
8.6140516e-06
1.3739346e-05
2.14821e-05
3.201903e-05
4.6034369e-05
6.4978226e-05
9.0374803e-05
4.8395055e-13
7.1695052e-13
1.2170471e-12
2.419429e-12
4.9753493e-12
1.7974395e-10
6.5340819e-10
2.0071503e-09
3.325943e-09
2.7325568e-09
6.2580375e-09
1.2180378e-08
1.9819711e-08
4.8437082e-08
1.062464e-07
2.5513732e-07
4.6257367e-07
9.4303809e-07
1.7367983e-06
3.0100417e-06
5.2164004e-06
8.4116436e-06
1.3438005e-05
2.1000755e-05
3.1273484e-05
4.4806936e-05
6.3383416e-05
8.7919557e-05
5.1965824e-13
8.0401319e-13
1.3745071e-12
3.0479617e-12
6.0710018e-12
2.3862562e-10
8.0152609e-10
2.4749517e-09
3.4732956e-09
3.601102e-09
7.3040114e-09
1.3433477e-08
2.2842867e-08
5.1332015e-08
1.1120571e-07
2.616702e-07
4.7997449e-07
9.437439e-07
1.731336e-06
2.962457e-06
5.1228858e-06
8.2463358e-06
1.3109502e-05
2.0502131e-05
3.0488853e-05
4.3592473e-05
6.1806208e-05
8.5531891e-05
5.5727145e-13
9.1277228e-13
1.7190348e-12
3.7827668e-12
1.5238606e-11
3.0438403e-10
9.7119084e-10
2.9952655e-09
3.6252266e-09
4.4628102e-09
8.3496792e-09
1.4651254e-08
2.5783296e-08
5.3565462e-08
1.1529301e-07
2.656406e-07
4.9446515e-07
9.4068129e-07
1.7233716e-06
2.9138167e-06
5.0266154e-06
8.0925029e-06
1.2771445e-05
2.0001034e-05
2.9711243e-05
4.2407287e-05
6.0272924e-05
8.3236451e-05
6.4399945e-13
1.1493995e-12
2.1253189e-12
4.506563e-12
2.8971858e-11
3.7651234e-10
1.1708759e-09
3.5483371e-09
4.4931032e-09
5.3053245e-09
9.4185134e-09
1.5847603e-08
2.8663051e-08
5.5298172e-08
1.181487e-07
2.6745891e-07
5.0613587e-07
9.3281838e-07
1.7090652e-06
2.8571385e-06
4.9185309e-06
7.930254e-06
1.2421789e-05
1.9496161e-05
2.8949339e-05
4.1282641e-05
5.8799422e-05
8.1037469e-05
7.4476597e-13
1.3933941e-12
2.5363532e-12
5.2156651e-12
4.25185e-11
4.5110068e-10
1.386965e-09
4.193536e-09
5.2960045e-09
6.1274464e-09
1.042644e-08
1.8166782e-08
3.1446768e-08
5.6722641e-08
1.2307118e-07
2.6752724e-07
5.1502407e-07
9.1840963e-07
1.6936711e-06
2.8137179e-06
4.8144052e-06
7.7520577e-06
1.2051618e-05
1.8981226e-05
2.8187748e-05
4.0287548e-05
5.7341564e-05
7.8922664e-05
8.4892304e-13
1.6433007e-12
2.9533072e-12
5.9200112e-12
5.6461621e-11
5.3279712e-10
1.6043901e-09
5.8976908e-09
6.0777574e-09
6.9320766e-09
1.1350619e-08
2.0686798e-08
3.4087643e-08
5.7768483e-08
1.2724994e-07
2.6621318e-07
5.218439e-07
9.0275384e-07
1.6798242e-06
2.7840429e-06
4.721144e-06
7.583155e-06
1.1685848e-05
1.8472195e-05
2.7439503e-05
3.9314262e-05
5.5894926e-05
7.6892152e-05
9.5583683e-13
1.8977632e-12
3.3713742e-12
6.6140076e-12
7.0281914e-11
6.1379057e-10
2.0000317e-09
7.4484303e-09
6.8634446e-09
7.7095977e-09
1.219977e-08
2.3124626e-08
3.6591317e-08
5.9496016e-08
1.3085908e-07
2.6376739e-07
5.2627142e-07
8.8419798e-07
1.6655206e-06
2.7536127e-06
4.626797e-06
7.4125944e-06
1.1392204e-05
1.7967481e-05
2.6708342e-05
3.8365502e-05
5.4508608e-05
7.4903485e-05
1.0651597e-12
2.1560054e-12
3.7903357e-12
7.3006238e-12
8.5686419e-11
6.9446506e-10
2.8384423e-09
8.9011208e-09
7.6160784e-09
8.4667841e-09
1.3631743e-08
2.5502469e-08
3.8975945e-08
6.2441598e-08
1.3369038e-07
2.6055845e-07
5.2888316e-07
8.7392297e-07
1.6444254e-06
2.7249713e-06
4.525039e-06
7.2512883e-06
1.1116918e-05
1.7452921e-05
2.5985259e-05
3.7435084e-05
5.3177278e-05
7.2975879e-05
1.1768597e-12
2.4179266e-12
4.2106354e-12
7.9870534e-12
9.9995491e-11
9.7909565e-10
3.6943269e-09
1.0324707e-08
8.3455829e-09
9.1993684e-09
1.5679942e-08
2.7784192e-08
4.1254454e-08
6.4706764e-08
1.3557479e-07
2.6301298e-07
5.2884135e-07
8.8680278e-07
1.6199247e-06
2.702143e-06
4.4348194e-06
7.1123547e-06
1.0852857e-05
1.6953101e-05
2.5288544e-05
3.6535144e-05
5.1898871e-05
7.1143275e-05
1.2905734e-12
2.6827118e-12
4.6300431e-12
8.667292e-12
1.2676905e-10
1.3508654e-09
4.5633464e-09
1.1723951e-08
9.0664881e-09
9.908258e-09
1.7695282e-08
2.9969622e-08
4.3394549e-08
6.6508176e-08
1.3648247e-07
2.6240133e-07
5.2578784e-07
8.9647948e-07
1.5920038e-06
2.6789e-06
4.3510135e-06
6.9830565e-06
1.0598448e-05
1.6471303e-05
2.4623955e-05
3.5675702e-05
5.0686979e-05
6.9414593e-05
1.4059928e-12
2.9496756e-12
5.047275e-12
9.3880317e-12
1.909617e-10
1.722436e-09
5.452417e-09
1.3100265e-08
9.8014798e-09
1.1547857e-08
1.9630554e-08
3.2097773e-08
4.5456694e-08
6.9375574e-08
1.3636016e-07
2.5886854e-07
5.1997492e-07
9.0317251e-07
1.5601552e-06
2.6498588e-06
4.2722308e-06
6.8475086e-06
1.0357668e-05
1.5984313e-05
2.3975566e-05
3.4845117e-05
4.9533033e-05
6.7782675e-05
1.5227668e-12
3.2180365e-12
5.5406582e-12
1.1327747e-11
2.5339083e-10
2.0939495e-09
6.3580528e-09
1.4456377e-08
1.0562244e-08
1.3474183e-08
2.1474083e-08
3.4092052e-08
4.9902508e-08
7.4124503e-08
1.3597489e-07
2.5842379e-07
5.1074216e-07
9.0555734e-07
1.5208099e-06
2.617302e-06
4.2020723e-06
6.7200763e-06
1.0145335e-05
1.563194e-05
2.3353799e-05
3.404929e-05
4.8439485e-05
6.6246881e-05
1.69492e-12
3.7423339e-12
6.7185669e-12
1.3236766e-11
3.1436323e-10
2.4661864e-09
7.292581e-09
1.5796468e-08
1.2107681e-08
1.5349254e-08
2.3297043e-08
3.5984679e-08
5.4150844e-08
7.8710704e-08
1.3534206e-07
2.6171209e-07
4.9896778e-07
9.0390011e-07
1.4753067e-06
2.5804333e-06
4.1332434e-06
6.6047811e-06
9.9492291e-06
1.5303263e-05
2.2765697e-05
3.3294222e-05
4.7411832e-05
6.4812195e-05
2.0691587e-12
4.5335082e-12
7.8859454e-12
1.5132354e-11
3.7216312e-10
2.8392468e-09
8.2619165e-09
1.7117826e-08
1.4556001e-08
1.7171941e-08
2.5228834e-08
3.7813002e-08
5.8240146e-08
8.31384e-08
1.3516705e-07
2.6432674e-07
4.8577033e-07
8.9985537e-07
1.4623404e-06
2.5386659e-06
4.0586913e-06
6.4960085e-06
9.7456402e-06
1.4992988e-05
2.2185945e-05
3.2561614e-05
4.6436443e-05
6.3468276e-05
2.4471744e-12
5.3282238e-12
9.0421082e-12
1.6999009e-11
4.2543493e-10
3.2224418e-09
9.225399e-09
1.9890628e-08
1.7098157e-08
1.8967002e-08
2.7128832e-08
4.0701392e-08
6.2245266e-08
8.7424758e-08
1.3846961e-07
2.6604488e-07
4.7200779e-07
8.94497e-07
1.4490051e-06
2.495353e-06
3.9810053e-06
6.4024832e-06
9.5653419e-06
1.4725047e-05
2.162649e-05
3.1857437e-05
4.5516764e-05
6.2217871e-05
2.8287567e-12
6.1260113e-12
1.0186534e-11
1.8836014e-11
4.7293314e-10
3.6155173e-09
1.016836e-08
2.370469e-08
1.9735672e-08
2.074381e-08
2.8986297e-08
4.4760476e-08
6.6072971e-08
9.1576943e-08
1.4073001e-07
2.6693203e-07
4.5797475e-07
8.8821708e-07
1.4368092e-06
2.453683e-06
3.9133968e-06
6.3260489e-06
9.438749e-06
1.4497712e-05
2.1125081e-05
3.1213097e-05
4.4680229e-05
6.1085451e-05
3.2136505e-12
6.9264805e-12
1.1319216e-11
2.0641706e-11
5.1833164e-10
3.9877019e-09
1.2688725e-08
2.7553356e-08
2.2443114e-08
2.2493561e-08
3.0802763e-08
4.8705576e-08
6.9963558e-08
9.5605025e-08
1.4230171e-07
2.6695412e-07
4.5357454e-07
8.7954431e-07
1.4251864e-06
2.4125978e-06
3.8535845e-06
6.26009e-06
9.3371238e-06
1.4284338e-05
2.0781138e-05
3.0611057e-05
4.3918197e-05
6.0065806e-05
3.6009673e-12
7.7278726e-12
1.2433852e-11
2.2405787e-11
5.4933398e-10
4.7661087e-09
1.5215174e-08
3.143081e-08
2.5195752e-08
2.4208167e-08
3.3940216e-08
5.2551201e-08
7.4198567e-08
9.9535746e-08
1.4703862e-07
2.6611219e-07
4.5715264e-07
8.6758904e-07
1.4296675e-06
2.3667384e-06
3.8240943e-06
6.1940369e-06
9.2692332e-06
1.4074117e-05
2.0530598e-05
3.0047025e-05
4.3225048e-05
5.9203458e-05
3.9900747e-12
8.5293453e-12
1.3529633e-11
2.4129594e-11
5.9652204e-10
5.9262842e-09
1.7689862e-08
3.5332217e-08
2.7988106e-08
2.5881108e-08
3.8050951e-08
5.6292373e-08
7.8332889e-08
1.0677255e-07
1.5173077e-07
2.6427096e-07
4.6458248e-07
8.5242986e-07
1.4368444e-06
2.3500632e-06
3.8058357e-06
6.1360941e-06
9.227018e-06
1.3915099e-05
2.0350403e-05
2.9570998e-05
4.2636665e-05
5.8467103e-05
4.3799629e-12
9.3293746e-12
1.4602629e-11
2.6286744e-11
7.1926664e-10
7.0340858e-09
2.0128045e-08
3.9253289e-08
3.0841781e-08
2.7985482e-08
4.2103549e-08
5.9900653e-08
8.2279145e-08
1.1456487e-07
1.5957038e-07
2.6204697e-07
4.6968556e-07
8.3364214e-07
1.4403432e-06
2.3438061e-06
3.7891842e-06
6.0840406e-06
9.1985359e-06
1.3779525e-05
2.0204963e-05
2.9137804e-05
4.2122059e-05
5.7819714e-05
4.7699118e-12
1.0126618e-11
1.6344253e-11
3.1012984e-11
7.9754383e-10
8.1001196e-09
2.254998e-08
4.3174193e-08
3.3794506e-08
3.2013732e-08
4.6089308e-08
6.3466641e-08
8.6177776e-08
1.2230721e-07
1.673867e-07
2.6006124e-07
4.7432817e-07
8.1415459e-07
1.439961e-06
2.3379646e-06
3.7644012e-06
6.0348823e-06
9.168657e-06
1.3676041e-05
2.0033789e-05
2.8780388e-05
4.1635424e-05
5.7222517e-05
5.6307507e-12
1.2099719e-11
1.9351634e-11
3.5620406e-11
8.3252621e-10
9.1292253e-09
2.4969141e-08
4.7106662e-08
3.7488686e-08
3.5995744e-08
5.0044546e-08
6.7140576e-08
9.1358975e-08
1.3004909e-07
1.7516532e-07
2.6260609e-07
4.7842862e-07
7.9413125e-07
1.4368889e-06
2.3288777e-06
3.7329912e-06
5.9855846e-06
9.1475271e-06
1.3600877e-05
1.9914756e-05
2.8507165e-05
4.1234633e-05
5.6710092e-05
6.8356915e-12
1.4287989e-11
2.2313036e-11
4.0127348e-11
8.3075997e-10
1.0140723e-08
2.7459889e-08
5.1052399e-08
4.3699923e-08
3.9948539e-08
5.4024181e-08
7.0936201e-08
9.9116097e-08
1.373575e-07
1.8287044e-07
2.6764622e-07
4.8168796e-07
7.7372073e-07
1.4326189e-06
2.3197003e-06
3.7021618e-06
5.9410601e-06
9.1391806e-06
1.3547524e-05
1.983821e-05
2.8289949e-05
4.0914188e-05
5.6286436e-05
8.0458987e-12
1.646412e-11
2.5235458e-11
4.4544859e-11
7.9248526e-10
1.1148462e-08
2.9914875e-08
5.7298531e-08
5.0133838e-08
4.3886446e-08
5.8003424e-08
7.4677391e-08
1.0677097e-07
1.4444402e-07
1.904291e-07
2.7418842e-07
4.8403551e-07
7.7140352e-07
1.4280795e-06
2.3119268e-06
3.6751351e-06
5.9039348e-06
9.1431118e-06
1.350883e-05
1.9798529e-05
2.8127162e-05
4.0658299e-05
5.5939802e-05
9.2618533e-12
1.8628745e-11
2.8119e-11
4.8868758e-11
7.1562166e-10
1.2146507e-08
3.2527188e-08
6.559434e-08
5.6751077e-08
4.7832164e-08
6.2040703e-08
8.0227206e-08
1.1435064e-07
1.516039e-07
1.9794102e-07
2.8391518e-07
4.8543881e-07
7.8940737e-07
1.4225034e-06
2.3062322e-06
3.6925498e-06
5.8741972e-06
9.1610198e-06
1.3481209e-05
1.9813263e-05
2.7994925e-05
4.0513425e-05
5.5709468e-05
1.0484745e-11
2.0785257e-11
3.0971277e-11
5.3111428e-11
6.1234674e-10
1.3070498e-08
3.7684153e-08
7.4053218e-08
6.3485105e-08
5.1794276e-08
6.6150167e-08
8.7809845e-08
1.2185598e-07
1.5957842e-07
2.0921119e-07
2.9294366e-07
4.8537727e-07
8.0854175e-07
1.4154802e-06
2.2998421e-06
3.7298267e-06
5.848898e-06
9.2021207e-06
1.3486008e-05
1.9883162e-05
2.7945465e-05
4.048599e-05
5.5611475e-05
1.1712931e-11
2.2931043e-11
3.3784815e-11
5.7257404e-11
4.4131684e-10
1.5072391e-08
4.2639505e-08
8.2638299e-08
7.0340295e-08
5.5754957e-08
7.062747e-08
9.5323543e-08
1.2926661e-07
1.673361e-07
2.2346088e-07
3.0649698e-07
4.852719e-07
8.2472855e-07
1.4034523e-06
2.3195908e-06
3.7642608e-06
5.8273374e-06
9.2561666e-06
1.3513097e-05
1.9990888e-05
2.794884e-05
4.0539704e-05
5.5624867e-05
1.2944686e-11
2.5062656e-11
3.664365e-11
6.1285838e-11
2.2144294e-10
1.7230352e-08
4.7481485e-08
9.1321084e-08
7.725631e-08
5.9762409e-08
7.8758649e-08
1.0274514e-07
1.3669226e-07
1.7509316e-07
2.3772633e-07
3.2068788e-07
4.8580189e-07
8.4008072e-07
1.3886347e-06
2.3485801e-06
3.7964549e-06
5.825483e-06
9.3180961e-06
1.3555034e-05
2.0122899e-05
2.8000132e-05
4.0629449e-05
5.5716798e-05
1.4180536e-11
2.7182264e-11
3.9854415e-11
7.0423307e-11
1.2200881e-10
1.9250826e-08
5.2276977e-08
1.0008057e-07
8.4271944e-08
6.4217538e-08
8.6891747e-08
1.1070428e-07
1.441399e-07
1.8457721e-07
2.5202696e-07
3.3501329e-07
4.8839852e-07
8.5542742e-07
1.3736325e-06
2.3767614e-06
3.8278893e-06
5.88294e-06
9.3798218e-06
1.3677468e-05
2.0258608e-05
2.825545e-05
4.0687949e-05
5.5938942e-05
1.6434783e-11
3.1635124e-11
4.7413646e-11
8.0903514e-11
1.3704802e-10
2.1165613e-08
5.7120189e-08
1.0882391e-07
9.1385575e-08
7.2519218e-08
9.5045881e-08
1.1880719e-07
1.5164156e-07
1.9869395e-07
2.6636546e-07
3.4940701e-07
5.0291996e-07
8.7014865e-07
1.3612825e-06
2.4059601e-06
3.8616455e-06
5.9458046e-06
9.4490874e-06
1.3869992e-05
2.0418028e-05
2.8565248e-05
4.0833113e-05
5.6278471e-05
2.0059371e-11
3.7438269e-11
5.4910688e-11
9.1059421e-11
1.5159833e-10
2.2983797e-08
6.2026965e-08
1.1762193e-07
1.0061585e-07
8.0831489e-08
1.0324074e-07
1.269672e-07
1.5919575e-07
2.1280051e-07
2.8069273e-07
3.6379612e-07
5.1728157e-07
8.8417254e-07
1.3788663e-06
2.4374467e-06
3.8955796e-06
6.0171614e-06
9.5201638e-06
1.4087733e-05
2.0607129e-05
2.8922138e-05
4.1040159e-05
5.6706867e-05
2.3692296e-11
4.3202057e-11
6.235292e-11
1.0094077e-10
1.6574286e-10
2.4725788e-08
6.7062738e-08
1.2645688e-07
1.1274026e-07
8.9172041e-08
1.1151718e-07
1.3518605e-07
1.7006549e-07
2.2691314e-07
2.9436788e-07
3.783006e-07
5.394291e-07
8.9794606e-07
1.4026603e-06
2.4692139e-06
3.93033e-06
6.0862906e-06
9.5914524e-06
1.4316135e-05
2.0813311e-05
2.9310718e-05
4.1284601e-05
5.7194148e-05
2.733959e-11
4.8939757e-11
6.9761666e-11
1.1070719e-10
1.7960007e-10
2.6482149e-08
7.2005397e-08
1.4057655e-07
1.2513044e-07
9.7581895e-08
1.1987741e-07
1.4345539e-07
1.8418635e-07
2.4103287e-07
3.0793913e-07
3.9858415e-07
5.6154385e-07
9.1131306e-07
1.4559256e-06
2.499677e-06
3.9689942e-06
6.199645e-06
9.669945e-06
1.455627e-05
2.1033041e-05
2.9716931e-05
4.1581163e-05
5.7653437e-05
3.1004382e-11
5.4659655e-11
7.7146648e-11
1.2046773e-10
1.9317898e-10
2.8086492e-08
7.8969106e-08
1.5532651e-07
1.3764953e-07
1.0671158e-07
1.2830802e-07
1.5311032e-07
1.98354e-07
2.5520762e-07
3.2147277e-07
4.2467841e-07
5.8307733e-07
9.2286989e-07
1.5062984e-06
2.5272588e-06
4.0089167e-06
6.3375686e-06
9.7580043e-06
1.4811194e-05
2.1272341e-05
3.0151116e-05
4.1948137e-05
5.8139464e-05
3.4685219e-11
6.0360285e-11
8.4502743e-11
1.3007204e-10
2.0659281e-10
3.0332045e-08
8.69188e-08
1.70307e-07
1.5016126e-07
1.1739388e-07
1.3679955e-07
1.6763091e-07
2.1248449e-07
2.6939887e-07
3.3615182e-07
4.5078704e-07
6.0967508e-07
9.3494124e-07
1.5530486e-06
2.5485187e-06
4.1033756e-06
6.4747896e-06
9.8552693e-06
1.5080735e-05
2.1531866e-05
3.0619309e-05
4.2364475e-05
5.8705664e-05
3.8380909e-11
6.6037108e-11
9.1819754e-11
1.3948583e-10
2.3140075e-10
3.3139543e-08
9.4714224e-08
1.8480563e-07
1.6264089e-07
1.2800231e-07
1.4686157e-07
1.8222618e-07
2.2670211e-07
2.8366823e-07
3.5533454e-07
4.7711109e-07
6.3707728e-07
9.4988305e-07
1.6005081e-06
2.5684569e-06
4.2170563e-06
6.6117893e-06
9.9618754e-06
1.5366054e-05
2.1811479e-05
3.1117532e-05
4.2812165e-05
5.9321153e-05
4.2094831e-11
7.1694941e-11
1.0069001e-10
1.5975469e-10
2.6579961e-10
3.5737473e-08
1.0252412e-07
1.9801104e-07
1.7502647e-07
1.3862207e-07
1.6180377e-07
1.9692736e-07
2.411494e-07
2.9810188e-07
3.8034704e-07
5.0365573e-07
6.6480443e-07
9.9098053e-07
1.648178e-06
2.5933841e-06
4.3368645e-06
6.7481372e-06
1.0208242e-05
1.5652305e-05
2.212641e-05
3.165726e-05
4.3301289e-05
5.9988973e-05
4.9563524e-11
8.3649801e-11
1.1838721e-10
1.8359651e-10
2.9957802e-10
3.8205056e-08
1.1042884e-07
2.1161114e-07
1.8746513e-07
1.5303855e-07
1.7687846e-07
2.1177994e-07
2.5579429e-07
3.1273804e-07
4.0549955e-07
5.3033832e-07
6.9266881e-07
1.0305182e-06
1.6952786e-06
2.6189899e-06
4.4573408e-06
6.8838683e-06
1.0471952e-05
1.5931718e-05
2.2577248e-05
3.2212306e-05
4.3811637e-05
6.0732986e-05
5.9605985e-11
9.7489498e-11
1.3600804e-10
2.0710527e-10
3.3286261e-10
4.0592321e-08
1.1851395e-07
2.2568811e-07
2.0034073e-07
1.7053074e-07
1.9211117e-07
2.2687042e-07
2.7059629e-07
3.3525133e-07
4.3072834e-07
5.57443e-07
7.2097185e-07
1.0696724e-06
1.7426149e-06
2.6507581e-06
4.5792799e-06
7.0219482e-06
1.0738424e-05
1.6209782e-05
2.3144015e-05
3.276765e-05
4.4599996e-05
6.1528349e-05
6.9722311e-11
1.1135203e-10
1.5359723e-10
2.3039511e-10
3.6585372e-10
4.2997384e-08
1.2700704e-07
2.4000902e-07
2.1847761e-07
1.8811374e-07
2.0753778e-07
2.4216447e-07
2.8557885e-07
3.5944091e-07
4.5616672e-07
5.8476125e-07
7.6535743e-07
1.1085871e-06
1.79014e-06
2.7619021e-06
4.7001186e-06
7.1665571e-06
1.1012506e-05
1.6494592e-05
2.3721343e-05
3.3331495e-05
4.5473084e-05
6.2345093e-05
7.9929403e-11
1.2526351e-10
1.7119704e-10
2.5356227e-10
3.9868868e-10
4.5499719e-08
1.3553657e-07
2.5746041e-07
2.3684414e-07
2.0563631e-07
2.2317014e-07
2.5761991e-07
3.0619188e-07
3.8378657e-07
4.8191715e-07
6.1226855e-07
8.1516646e-07
1.1458932e-06
1.8369356e-06
2.8882005e-06
4.8191534e-06
7.3138693e-06
1.1293221e-05
1.6787453e-05
2.4311066e-05
3.390807e-05
4.6364927e-05
6.3179752e-05
9.0237104e-11
1.3923689e-10
1.888256e-10
2.7662731e-10
4.3137898e-10
4.7892527e-08
1.4567933e-07
2.7574676e-07
2.5531007e-07
2.2310523e-07
2.3899123e-07
2.7321425e-07
3.3055103e-07
4.0826837e-07
5.0796857e-07
6.4011618e-07
8.6487375e-07
1.1952627e-06
1.8839462e-06
3.0147536e-06
4.9362418e-06
7.5542985e-06
1.1575282e-05
1.7092799e-05
2.4916585e-05
3.4498617e-05
4.7274099e-05
6.4026735e-05
1.0064933e-10
1.5327608e-10
2.0648612e-10
2.9957564e-10
4.6372692e-10
5.0828613e-08
1.5681525e-07
2.9413153e-07
2.737907e-07
2.4047719e-07
2.5497454e-07
2.9479936e-07
3.5514019e-07
4.3312524e-07
5.3419298e-07
6.8307712e-07
9.1431854e-07
1.2459122e-06
1.9543861e-06
3.141775e-06
5.0541812e-06
7.8514185e-06
1.1854627e-05
1.7419767e-05
2.5535073e-05
3.510837e-05
4.8200228e-05
6.4872592e-05
1.1116328e-10
1.6737527e-10
2.2416544e-10
3.2414935e-10
5.3103238e-10
5.4033492e-08
1.6788773e-07
3.12831e-07
2.9228258e-07
2.5778196e-07
2.7110506e-07
3.194044e-07
3.7995941e-07
4.5825578e-07
5.6055412e-07
7.2626604e-07
9.6352447e-07
1.2966974e-06
2.0533967e-06
3.2653701e-06
5.1724104e-06
8.1501656e-06
1.2122549e-05
1.7923449e-05
2.6145819e-05
3.574334e-05
4.9154729e-05
6.5741409e-05
1.2289086e-10
1.8638231e-10
2.5714916e-10
3.8220236e-10
6.1032288e-10
5.704353e-08
1.7909123e-07
3.3200832e-07
3.1068309e-07
2.7520122e-07
2.9596891e-07
3.4417202e-07
4.0513221e-07
4.8357e-07
5.9396654e-07
7.6865469e-07
1.0134151e-06
1.3508279e-06
2.1517669e-06
3.3843684e-06
5.2852579e-06
8.444056e-06
1.2421973e-05
1.850349e-05
2.674026e-05
3.6410292e-05
5.0127119e-05
6.6637052e-05
1.5066358e-10
2.2317613e-10
3.0292549e-10
4.3990027e-10
6.8885693e-10
5.9912395e-08
1.9045396e-07
3.5169642e-07
3.2921791e-07
2.9707112e-07
3.2111162e-07
3.6914637e-07
4.306512e-07
5.0906232e-07
6.3518779e-07
8.1091985e-07
1.0640891e-06
1.4224517e-06
2.2515204e-06
3.5037069e-06
5.4688138e-06
8.7341597e-06
1.2746381e-05
1.9083553e-05
2.731913e-05
3.7432902e-05
5.1106655e-05
6.7556212e-05
1.786942e-10
2.6010111e-10
3.4879639e-10
4.9736555e-10
7.6686061e-10
6.2732362e-08
2.0214206e-07
3.7198348e-07
3.490193e-07
3.2301623e-07
3.4649322e-07
3.943875e-07
4.5641176e-07
5.3898546e-07
6.7656007e-07
8.5347746e-07
1.1149085e-06
1.5200364e-06
2.3500518e-06
3.622637e-06
5.7043398e-06
9.0194173e-06
1.3072532e-05
1.9664282e-05
2.7894113e-05
3.8454698e-05
5.2093365e-05
6.8912978e-05
2.0701497e-10
2.9720168e-10
3.9482538e-10
5.5475391e-10
8.4462466e-10
6.563062e-08
2.143775e-07
3.9267541e-07
3.7321983e-07
3.4907663e-07
3.7215536e-07
4.1992569e-07
4.8238522e-07
5.7802683e-07
7.1799775e-07
8.9638467e-07
1.1660779e-06
1.61692e-06
2.4469889e-06
3.7404086e-06
5.9343384e-06
9.3002001e-06
1.3429431e-05
2.0244483e-05
2.8466895e-05
3.94732e-05
5.3065368e-05
7.031737e-05
2.3566414e-10
3.3453179e-10
4.4108731e-10
6.1223296e-10
9.224414e-10
6.8758651e-08
2.2658355e-07
4.1488923e-07
3.976906e-07
3.7512406e-07
3.9808594e-07
4.4572297e-07
5.1389737e-07
6.1747263e-07
7.5981118e-07
9.4142692e-07
1.2421763e-06
1.7131019e-06
2.5445117e-06
3.8822937e-06
6.1648938e-06
9.5763207e-06
1.4007475e-05
2.081441e-05
2.904734e-05
4.0497943e-05
5.4037608e-05
7.172346e-05
2.6466477e-10
3.7212187e-10
4.8761325e-10
6.6982077e-10
1.0002406e-09
7.1615207e-08
2.3967935e-07
4.368265e-07
4.2223033e-07
4.0119261e-07
4.2427901e-07
4.7176019e-07
5.5235264e-07
6.5719954e-07
8.0207323e-07
9.872912e-07
1.3260385e-06
1.8088995e-06
2.6398087e-06
4.107119e-06
6.387493e-06
9.8522712e-06
1.4582369e-05
2.1376109e-05
2.9670946e-05
4.1528633e-05
5.5024547e-05
7.3146148e-05
2.9401542e-10
4.0996026e-10
5.3436593e-10
7.2734783e-10
1.1144643e-09
7.4549744e-08
2.5250055e-07
4.5906007e-07
4.4682821e-07
4.2728154e-07
4.5071542e-07
5.0657496e-07
5.9099934e-07
6.9738025e-07
8.4465172e-07
1.0443724e-06
1.4093953e-06
1.9045544e-06
2.7337523e-06
4.3278448e-06
6.6049035e-06
1.0128131e-05
1.5161499e-05
2.1913835e-05
3.0695729e-05
4.2528029e-05
5.6035568e-05
7.4591477e-05
3.237113e-10
4.4942099e-10
6.0128103e-10
8.437751e-10
1.295493e-09
7.7171052e-08
2.6535916e-07
4.8171475e-07
4.7149283e-07
4.5350539e-07
4.8053683e-07
5.4411955e-07
6.2991208e-07
7.3802807e-07
8.8745525e-07
1.115974e-06
1.4922923e-06
2.0002967e-06
2.8587208e-06
4.5466855e-06
6.8185704e-06
1.0504201e-05
1.5732519e-05
2.2438319e-05
3.1699932e-05
4.3494921e-05
5.7200842e-05
7.6019203e-05
3.9156467e-10
5.4038272e-10
7.1194365e-10
9.7895716e-10
1.4755295e-09
7.9660781e-08
2.7845837e-07
5.050127e-07
4.9618442e-07
4.7992219e-07
5.1787863e-07
5.8194727e-07
6.6920889e-07
7.7906337e-07
9.381779e-07
1.1875441e-06
1.5753471e-06
2.0950615e-06
3.0334163e-06
4.7604484e-06
7.0245818e-06
1.0998738e-05
1.6289572e-05
2.2955547e-05
3.2696693e-05
4.4430665e-05
5.873826e-05
7.7406497e-05
4.6463243e-10
6.3194124e-10
8.231732e-10
1.1141629e-09
1.655065e-09
8.2162884e-08
2.9199464e-07
5.2933326e-07
5.2112753e-07
5.1538046e-07